Siesta Version:                                        siesta-3.2-pl-5
Architecture  : x86_64-unknown-linux-gnu--unknown
Compiler flags: mpif90 -g -O2
PARALLEL version

* Running in serial mode with MPI
>> Start of run:  21-SEP-2015  10:58:39

                           ***********************       
                           *  WELCOME TO SIESTA  *       
                           ***********************       

reinit: Reading from standard input
************************** Dump of input data file ****************************
SystemName          graphene
SystemLabel         graphene
NumberOfAtoms          10
NumberOfSpecies        1
%block ChemicalSpeciesLabel
  1   6  C
%endblock ChemicalSpeciesLabel
%block PAO.Basis                 # Define Basis set
C           2                    # Species label, number of l-shells
 n=2   0   1                         # n, l, Nzeta
   4.088
   1.000
 n=2   1   1                       # n, l, Nzeta, Polarization, NzetaPol
   4.870
   1.000
%endblock PAO.Basis
XC.functional GGA
XC.authors    PBE
LatticeConstant     2.460 Ang
%block LatticeVectors
   2.4830680378       0.0000000000        0.0000000000 #(a√3,0,0)
   1.2415340189       2.1504000000        0.0000000000 #(a(√3)/2,a*(3/2),0)
   0.000000000        0.0000000000        0.0000000000 #(0,0,0)
%endblock LatticeVectors
AtomicCoordinatesFormat ScaledCartesian
%block AtomicCoordinatesAndAtomicSpecies
   0.0000000000   0.5000000000   0.8660254040  1
   0.0000000000   1.0000000000   0.0000000000  1
   0.0000000000   2.0000000000   0.0000000000  1
   0.0000000000   1.0000000000   1.7320508080  1
   0.0000000000   2.0000000000   1.7320508080  1
   0.0000000000   2.5000000000   0.8660254040  1
   0.0000000000   5.6900000000   7.3800000000  1
   0.0000000000   4.6900000000   9.1120508080  1
   0.0000000000   5.6900000000   9.1120508080  1
   0.0000000000   6.1900000000   8.2460254040  1
%endblock AtomicCoordinatesAndAtomicSpecies
%block kgrid_Monkhorst_Pack
   1   0   0  0.0
   0  10   0  0.5
   0   0  30  0.5
%endblock Kgrid_Monkhorst_Pack
%block BandLines
  1   0.00000   0.000000  0.000000  \Gamma
 100  0.00000   2.1503935 2.4822690  M
 100  0.00000   2.866739  2.482269  K
 100  0.00000   0.000000  0.000000  \Gamma
%endblock BandLines
MeshCutoff         100.0 Ry
MaxSCFIterations     500
DM.MixingWeight      0.1
DM.NumberPulay       5
DM.Tolerance         1.d-4
WriteCoorXmol        .true. #Solta o Arquivo .xyz
SolutionMethod       diagon
SolutionMethod   diagon
WriteCoorXmol        .true. #Solta o Arquivo .xyz
WriteBands                      .true.
TS.WriteHS  .true.
************************** End of input data file *****************************

reinit: -----------------------------------------------------------------------
reinit: System Name: graphene
reinit: -----------------------------------------------------------------------
reinit: System Label: graphene                                                    
reinit: -----------------------------------------------------------------------

initatom: Reading input for the pseudopotentials and atomic orbitals ----------
 Species number:            1  Label: C Atomic number:           6
Ground state valence configuration:   2s02  2p02
Reading pseudopotential information in formatted form from C.psf

Valence configuration for pseudopotential generation:
2s( 2.00) rc: 1.25
2p( 2.00) rc: 1.25
3d( 0.00) rc: 1.25
4f( 0.00) rc: 1.25
For C, standard SIESTA heuristics set lmxkb to 2
 (one more than the basis l, including polarization orbitals).
Use PS.lmax or PS.KBprojectors blocks to override.

<basis_specs>
===============================================================================
C                    Z=   6    Mass=  12.010        Charge= 0.17977+309
Lmxo=1 Lmxkb= 2    BasisType=split      Semic=F
L=0  Nsemic=0  Cnfigmx=2
          n=1  nzeta=1  polorb=0
            splnorm:   0.15000    
               vcte:    0.0000    
               rinn:    0.0000    
                rcs:    4.0880    
            lambdas:    1.0000    
L=1  Nsemic=0  Cnfigmx=2
          n=1  nzeta=1  polorb=0
            splnorm:   0.15000    
               vcte:    0.0000    
               rinn:    0.0000    
                rcs:    4.8700    
            lambdas:    1.0000    
-------------------------------------------------------------------------------
L=0  Nkbl=1  erefs: 0.17977+309
L=1  Nkbl=1  erefs: 0.17977+309
L=2  Nkbl=1  erefs: 0.17977+309
===============================================================================
</basis_specs>

atom: Called for C                     (Z =   6)

read_vps: Pseudopotential generation method:
read_vps: ATM3      Troullier-Martins                       
Total valence charge:    4.00000

read_vps: Pseudopotential includes a core correction:
read_vps: Pseudo-core for xc-correction

xc_check: Exchange-correlation functional:
xc_check: GGA Perdew, Burke & Ernzerhof 1996
V l=0 = -2*Zval/r beyond r=  1.3270
V l=1 = -2*Zval/r beyond r=  1.3270
V l=2 = -2*Zval/r beyond r=  1.3270
All V_l potentials equal beyond r=  1.2311
This should be close to max(r_c) in ps generation
All pots = -2*Zval/r beyond r=  1.3270

VLOCAL1: 99.0% of the norm of Vloc inside     28.641 Ry
VLOCAL1: 99.9% of the norm of Vloc inside     65.273 Ry
atom: Maximum radius for 4*pi*r*r*local-pseudopot. charge    1.48507
atom: Maximum radius for r*vlocal+2*Zval:    1.27815
GHOST: No ghost state for L =  0
GHOST: No ghost state for L =  1
GHOST: No ghost state for L =  2

KBgen: Kleinman-Bylander projectors: 
   l= 0   rc=  1.466618   el= -1.009804   Ekb=  7.916662   kbcos=  0.281323
   l= 1   rc=  1.485071   el= -0.388706   Ekb= -4.690769   kbcos= -0.279005
   l= 2   rc=  1.641300   el=  0.001971   Ekb= -1.223675   kbcos= -0.004991

KBgen: Total number of  Kleinman-Bylander projectors:    9
atom: -------------------------------------------------------------------------

atom: SANKEY-TYPE ORBITALS:

SPLIT: Orbitals with angular momentum L= 0

SPLIT: Basis orbitals for state 2s

   izeta = 1
                 lambda =    1.000000
                     rc =    4.088342
                 energy =   -0.989113
                kinetic =    0.943943
    potential(screened) =   -1.933056
       potential(ionic) =   -5.533072

SPLIT: Orbitals with angular momentum L= 1

SPLIT: Basis orbitals for state 2p

   izeta = 1
                 lambda =    1.000000
                     rc =    4.870301
                 energy =   -0.368902
                kinetic =    2.591513
    potential(screened) =   -2.960416
       potential(ionic) =   -6.456646
atom: Total number of Sankey-type orbitals:  4

atm_pop: Valence configuration (for local Pseudopot. screening):
 2s( 2.00)                                                            
 2p( 2.00)                                                            
Vna: chval, zval:    4.00000   4.00000

Vna:  Cut-off radius for the neutral-atom potential:   4.870301
comcore: Pseudo-core radius Rcore=  1.791422

atom: _________________________________________________________________________

prinput: Basis input ----------------------------------------------------------

PAO.BasisType split     

%block ChemicalSpeciesLabel
    1    6 C                       # Species index, atomic number, species label
%endblock ChemicalSpeciesLabel

%block PAO.Basis                 # Define Basis set
C                     2                    # Species label, number of l-shells
 n=2   0   1                         # n, l, Nzeta 
   4.088   
   1.000   
 n=2   1   1                         # n, l, Nzeta 
   4.870   
   1.000   
%endblock PAO.Basis

prinput: ----------------------------------------------------------------------

coor:   Atomic-coordinates input format  =     Cartesian coordinates
coor:                                          (in units of alat)

siesta: Atomic coordinates (Bohr) and species
siesta:      0.00000   2.32436   4.02592  1        1
siesta:      0.00000   4.64873   0.00000  1        2
siesta:      0.00000   9.29746   0.00000  1        3
siesta:      0.00000   4.64873   8.05183  1        4
siesta:      0.00000   9.29746   8.05183  1        5
siesta:      0.00000  11.62182   4.02592  1        6
siesta:      0.00000  26.45126  34.30761  1        7
siesta:      0.00000  21.80253  42.35945  1        8
siesta:      0.00000  26.45126  42.35945  1        9
siesta:      0.00000  28.77563  38.33353  1       10

siesta: Automatic unit cell vectors (Ang):
siesta:    5.669953    0.000000    0.000000
siesta:    0.000000   21.067093    0.000000
siesta:    0.000000    0.000000   30.327162

siesta: System type = molecule  

initatomlists: Number of atoms, orbitals, and projectors:     10    40    90

siesta: ******************** Simulation parameters ****************************
siesta:
siesta: The following are some of the parameters of the simulation.
siesta: A complete list of the parameters used, including default values,
siesta: can be found in file out.fdf
siesta:
redata: Non-Collinear-spin run           =     F
redata: SpinPolarized (Up/Down) run      =     F
redata: Number of spin components        =     1
redata: Long output                      =     F
redata: Number of Atomic Species         =        1
redata: Charge density info will appear in .RHO file
redata: Write Mulliken Pop.              =     NO
redata: Mesh Cutoff                      =   100.0000  Ry
redata: Net charge of the system         =     0.0000 |e|
redata: Max. number of SCF Iter          =      500
redata: Performing Pulay mixing using    =     5 iterations
redata: Mix DM in first SCF step ?       =     F
redata: Write Pulay info on disk?        =     F
redata: Discard 1st Pulay DM after  kick =     F
redata: New DM Mixing Weight             =     0.1000
redata: New DM Occupancy tolerance       = 0.000000000001
redata: No kicks to SCF
redata: DM Mixing Weight for Kicks       =     0.5000
redata: DM Tolerance for SCF             =     0.000100
redata: Require Energy convergence for SCF =     F
redata: DM Energy tolerance for SCF      =     0.000100 eV
redata: Require Harris convergence for SCF =     F
redata: DM Harris energy tolerance for SCF =     0.000100 eV
redata: Using Saved Data (generic)   =     F
redata: Use continuation files for DM    =     F
redata: Neglect nonoverlap interactions  =     F
redata: Method of Calculation            =     Diagonalization
redata: Divide and Conquer               =     T
redata: Electronic Temperature           =     0.0019  Ry
redata: Fix the spin of the system       =     F
redata: Dynamics option                  =     Verlet MD run
redata: Initial MD time step             =        1
redata:   Final MD time step             =        1
redata: Length of MD time step           =     1.0000  fs
redata: Initial Temperature of MD run    =     0.0000  K
redata: Perform a MD quench              =     F
redata: ***********************************************************************
Total number of electrons:    40.000000
Total ionic charge:    40.000000

* ProcessorY, Blocksize:    1  24

 Kpoints in:          150 . Kpoints trimmed:          150

siesta: k-grid: Number of k-points =   150
siesta: k-grid: Cutoff (effective) =     2.835 Ang
siesta: k-grid: Supercell and displacements
siesta: k-grid:    1   0   0      0.000
siesta: k-grid:    0  10   0      0.500
siesta: k-grid:    0   0  30      0.500
Naive supercell factors:     3    1    1

superc: Internal auxiliary supercell:     3 x     1 x     1  =       3
superc: Number of atoms, orbitals, and projectors:     30    120    270

* Maximum dynamic memory allocated =     1 MB

siesta:                 ==============================
                            Begin MD step =      1
                        ==============================

superc: Internal auxiliary supercell:     3 x     1 x     1  =       3
superc: Number of atoms, orbitals, and projectors:     30    120    270

outcell: Unit cell vectors (Ang):
        5.669953    0.000000    0.000000
        0.000000   21.067093    0.000000
        0.000000    0.000000   30.327162

outcell: Cell vector modules (Ang)   :    5.669953   21.067093   30.327162
outcell: Cell angles (23,13,12) (deg):     90.0000     90.0000     90.0000
outcell: Cell volume (Ang**3)        :   3622.5618
New_DM. Step:     1
Initializing Density Matrix...

InitMesh: MESH =    36 x   128 x   192 =      884736
InitMesh: Mesh cutoff (required, used) =   100.000   102.026 Ry

* Maximum dynamic memory allocated =    57 MB

stepf: Fermi-Dirac step function

siesta: Program's energy decomposition (eV):
siesta: Ebs     =      -329.790197
siesta: Eions   =      3161.344813
siesta: Ena     =      1089.680083
siesta: Ekin    =       962.091540
siesta: Enl     =        71.582164
siesta: DEna    =        -0.000007
siesta: DUscf   =         0.000000
siesta: DUext   =         0.000000
siesta: Exc     =      -421.637125
siesta: eta*DQ  =         0.000000
siesta: Emadel  =         0.000000
siesta: Emeta   =         0.000000
siesta: Emolmec =         0.000000
siesta: Ekinion =         0.000000
siesta: Eharris =     -1482.241558
siesta: Etot    =     -1459.628159
siesta: FreeEng =     -1459.628159

siesta: iscf   Eharris(eV)      E_KS(eV)   FreeEng(eV)   dDmax  Ef(eV)
siesta:    1    -1482.2416    -1459.6282    -1459.6282  0.7932 -4.1140
timer: Routine,Calls,Time,% = IterSCF        1       0.946  92.23
elaps: Routine,Calls,Wall,% = IterSCF        1       0.949  92.32
siesta:    2    -1853.0741    -1456.7756    -1456.8314  1.9598  0.2737
siesta:    3    -1492.9842    -1465.7629    -1465.7744  1.4603 -4.1253
siesta:    4    -1484.9514    -1466.0416    -1466.0915  1.3872 -4.5464
siesta:    5    -1484.0754    -1466.1518    -1466.2127  1.2702 -4.4909
siesta:    6    -1485.1272    -1466.4609    -1466.5660  1.3867 -4.5142
siesta:    7    -1497.5961    -1469.4650    -1469.5067  1.0506 -4.6649
siesta:    8    -1493.2757    -1469.0692    -1469.1308  1.5973 -3.9236
siesta:    9    -1483.0497    -1469.4788    -1469.4993  0.7922 -4.5087
siesta:   10    -1482.2565    -1469.5813    -1469.6328  0.5959 -4.4239
siesta:   11    -1481.7366    -1469.7511    -1469.8391  0.5216 -4.4129
siesta:   12    -1481.1617    -1470.4363    -1470.5460  0.5439 -4.3488
siesta:   13    -1484.9436    -1470.6377    -1470.6963  0.7520 -4.3876
siesta:   14    -1503.2447    -1471.1578    -1471.1579  1.5587 -4.0095
siesta:   15    -1481.3282    -1471.2860    -1471.2860  0.5852 -4.4004
siesta:   16    -1481.0752    -1471.7603    -1471.8813  0.5484 -4.4134
siesta:   17    -1481.0337    -1472.0013    -1472.0833  0.5249 -4.4151
siesta:   18    -1481.0692    -1472.4809    -1472.5715  0.5431 -4.4244
siesta:   19    -1480.9776    -1474.8164    -1474.9148  0.3898 -4.4404
siesta:   20    -1496.1034    -1477.6602    -1477.8017  1.6292 -4.0563
siesta:   21    -1480.7743    -1476.3589    -1476.3590  0.3805 -4.4811
siesta:   22    -1480.9578    -1476.9114    -1477.0708  0.4333 -4.4858
siesta:   23    -1480.9682    -1476.3104    -1476.4656  0.4704 -4.4841
siesta:   24    -1480.7487    -1476.8385    -1476.9969  0.5749 -4.4047
siesta:   25    -1480.7482    -1476.9073    -1477.0095  0.5872 -4.4037
siesta:   26    -1497.7398    -1476.8103    -1476.9126  1.5966 -4.0648
siesta:   27    -1480.9061    -1476.8377    -1476.8377  0.6914 -4.3900
siesta:   28    -1480.9581    -1476.7407    -1476.8045  0.7135 -4.4239
siesta:   29    -1493.2186    -1476.8735    -1476.9612  1.0441 -4.5282
siesta:   30    -1481.4954    -1476.9865    -1477.0576  0.7852 -4.3924
siesta:   31    -1481.0982    -1476.9917    -1477.1003  0.5831 -4.3667
siesta:   32    -1491.3012    -1477.0526    -1477.1530  1.5520 -4.0750
siesta:   33    -1480.9535    -1477.0335    -1477.0453  0.6054 -4.4598
siesta:   34    -1480.8122    -1477.1120    -1477.1944  0.5535 -4.4725
siesta:   35    -1491.1256    -1477.1834    -1477.2890  0.9414 -4.4370
siesta:   36    -1480.8042    -1477.2521    -1477.3422  0.4430 -4.4899
siesta:   37    -1480.8453    -1477.6130    -1477.7130  0.3610 -4.4999
siesta:   38    -1495.1458    -1477.4920    -1477.6132  1.5240 -4.0586
siesta:   39    -1480.7297    -1477.5944    -1477.5946  0.3134 -4.4699
siesta:   40    -1480.7483    -1477.6578    -1477.7475  0.4502 -4.4742
siesta:   41    -1486.7468    -1477.8311    -1477.9178  0.6726 -4.4563
siesta:   42    -1480.8178    -1477.7724    -1477.7724  0.4567 -4.4991
siesta:   43    -1480.8107    -1477.8129    -1477.9257  0.3109 -4.4882
siesta:   44    -1493.0374    -1477.8646    -1477.9899  1.5046 -4.0519
siesta:   45    -1480.7797    -1477.9123    -1477.9175  0.4141 -4.5004
siesta:   46    -1480.7849    -1477.9841    -1478.1084  0.4216 -4.5081
siesta:   47    -1484.5995    -1478.0043    -1478.1341  0.6652 -4.5008
siesta:   48    -1480.7121    -1478.0161    -1478.0161  0.2998 -4.4917
siesta:   49    -1480.7320    -1478.0557    -1478.1627  0.2975 -4.4895
siesta:   50    -1493.0788    -1478.1078    -1478.2170  1.5072 -4.0522
siesta:   51    -1480.7231    -1478.1374    -1478.1419  0.3533 -4.4984
siesta:   52    -1480.8034    -1478.1871    -1478.3082  0.4798 -4.5011
siesta:   53    -1484.4188    -1478.4466    -1478.5536  0.6489 -4.5257
siesta:   54    -1480.7136    -1478.2909    -1478.2911  0.3482 -4.4947
siesta:   55    -1480.7193    -1478.2969    -1478.3997  0.3619 -4.4943
siesta:   56    -1491.5367    -1478.2338    -1478.3359  1.4899 -4.0804
siesta:   57    -1480.6791    -1478.4088    -1478.4250  0.2317 -4.4915
siesta:   58    -1480.7136    -1478.4617    -1478.5692  0.3250 -4.4927
siesta:   59    -1488.6220    -1478.1604    -1478.2581  0.6608 -4.4482
siesta:   60    -1480.8514    -1478.4161    -1478.4165  0.4774 -4.5084
siesta:   61    -1480.7138    -1478.4278    -1478.5551  0.3046 -4.5039
siesta:   62    -1491.3342    -1478.4714    -1478.5971  1.4770 -4.0495
siesta:   63    -1480.7211    -1478.4765    -1478.5216  0.3335 -4.5054
siesta:   64    -1480.7240    -1478.4890    -1478.6173  0.3688 -4.5079
siesta:   65    -1482.9282    -1478.5129    -1478.6445  0.6482 -4.5153
siesta:   66    -1480.7022    -1478.4951    -1478.5015  0.3512 -4.4576
siesta:   67    -1480.7053    -1478.5515    -1478.6361  0.3504 -4.4482
siesta:   68    -1492.8999    -1478.5559    -1478.6404  1.5071 -4.0556
siesta:   69    -1480.6940    -1478.5768    -1478.5827  0.4011 -4.4427
siesta:   70    -1480.6899    -1478.5911    -1478.6811  0.3022 -4.4465
siesta:   71    -1490.7295    -1478.5615    -1478.6489  0.7461 -4.4238
siesta:   72    -1480.7091    -1478.6342    -1478.7198  0.3140 -4.4546
siesta:   73    -1480.7090    -1478.6732    -1478.7557  0.3257 -4.4697
siesta:   74    -1490.2666    -1478.7904    -1478.8761  1.5071 -4.0383
siesta:   75    -1480.8167    -1478.8006    -1478.8569  0.4704 -4.4106
siesta:   76    -1480.8968    -1478.7302    -1478.8275  0.5170 -4.4055
siesta:   77    -1487.7139    -1478.7740    -1478.8465  0.6426 -4.4524
siesta:   78    -1480.9237    -1478.8414    -1478.8414  0.5002 -4.4084
siesta:   79    -1480.9415    -1478.9402    -1479.0280  0.4169 -4.3988
siesta:   80    -1485.5942    -1478.9903    -1479.0964  1.5069 -4.2862
siesta:   81    -1481.0868    -1478.9719    -1479.0211  0.5409 -4.4337
siesta:   82    -1480.7353    -1478.9812    -1479.0591  0.2335 -4.4310
siesta:   83    -1486.7863    -1479.0083    -1479.0967  0.6490 -4.4523
siesta:   84    -1480.7056    -1479.0693    -1479.0693  0.3613 -4.4239
siesta:   85    -1480.7231    -1479.0721    -1479.1776  0.3589 -4.4226
siesta:   86    -1485.7051    -1479.1078    -1479.2088  1.5105 -4.2744
siesta:   87    -1480.7450    -1479.0935    -1479.1396  0.4097 -4.4289
siesta:   88    -1480.8363    -1479.1402    -1479.2412  0.2722 -4.4126
siesta:   89    -1486.4414    -1479.1633    -1479.2591  0.6434 -4.4564
siesta:   90    -1480.7075    -1479.1837    -1479.1837  0.2117 -4.4272
siesta:   91    -1480.6878    -1479.2277    -1479.3242  0.2252 -4.4322
siesta:   92    -1485.9118    -1479.2578    -1479.3577  1.5231 -4.2670
siesta:   93    -1480.6903    -1479.2575    -1479.3023  0.2199 -4.4366
siesta:   94    -1480.7177    -1479.3048    -1479.3976  0.3206 -4.4320
siesta:   95    -1486.7930    -1479.4047    -1479.4965  0.6729 -4.4602
siesta:   96    -1480.6966    -1479.3597    -1479.3597  0.1966 -4.4400
siesta:   97    -1480.6998    -1479.3729    -1479.4635  0.2097 -4.4439
siesta:   98    -1486.5948    -1479.3776    -1479.4639  1.5328 -4.2323
siesta:   99    -1480.6860    -1479.4196    -1479.4623  0.1972 -4.4477
siesta:  100    -1480.6940    -1479.4475    -1479.5343  0.2007 -4.4498
siesta:  101    -1486.9663    -1479.5545    -1479.6396  0.6769 -4.4682
siesta:  102    -1480.6872    -1479.4907    -1479.4907  0.2092 -4.4549
siesta:  103    -1480.6851    -1479.5082    -1479.5921  0.2057 -4.4564
siesta:  104    -1486.4599    -1479.6360    -1479.7199  1.5444 -4.2476
siesta:  105    -1480.6808    -1479.5602    -1479.6038  0.2021 -4.4669
siesta:  106    -1480.6812    -1479.6116    -1479.6942  0.1964 -4.4772
siesta:  107    -1485.2606    -1480.2271    -1480.3104  0.6612 -4.5249
siesta:  108    -1480.6702    -1479.6973    -1479.6973  0.1891 -4.4588
siesta:  109    -1480.6723    -1479.7286    -1479.8146  0.1900 -4.4609
siesta:  110    -1483.5387    -1480.0736    -1480.1590  1.5053 -4.3586
siesta:  111    -1480.8285    -1479.8668    -1479.9854  0.5344 -4.4321
siesta:  112    -1480.8300    -1479.8601    -1479.9377  0.5374 -4.4318
siesta:  113    -1485.1809    -1479.7648    -1479.8428  0.6578 -4.5246
siesta:  114    -1480.8180    -1479.8041    -1479.8041  0.5758 -4.4260
siesta:  115    -1481.7038    -1479.7473    -1479.8408  1.2032 -4.4582
siesta:  116    -1481.3815    -1479.6911    -1479.7308  0.7712 -4.4954
siesta:  117    -1481.6435    -1479.7931    -1479.8985  0.7426 -4.4957
siesta:  118    -1481.5249    -1479.8470    -1479.9657  0.7007 -4.4840
siesta:  119    -1487.4072    -1479.8718    -1479.9881  0.6947 -4.4708
siesta:  120    -1482.2736    -1479.6949    -1479.6949  1.4865 -4.5343
siesta:  121    -1481.1738    -1479.6699    -1479.7263  0.5825 -4.4201
siesta:  122    -1481.4260    -1479.7324    -1479.7756  0.8192 -4.4811
siesta:  123    -1481.2099    -1479.7163    -1479.7919  0.5215 -4.4136
siesta:  124    -1481.0880    -1479.7665    -1479.8153  0.4911 -4.5383
siesta:  125    -1482.3403    -1479.7825    -1479.9014  0.5767 -4.5368
siesta:  126    -1481.4050    -1479.7737    -1479.8208  1.0124 -4.5264
siesta:  127    -1481.0180    -1479.7740    -1479.8952  0.5173 -4.4414
siesta:  128    -1481.6819    -1479.8050    -1479.8666  1.0833 -4.4860
siesta:  129    -1481.0977    -1479.7935    -1479.9138  0.5853 -4.4433
siesta:  130    -1481.2796    -1479.7878    -1479.8663  0.5150 -4.4310
siesta:  131    -1495.5904    -1479.6276    -1479.6709  1.2152 -4.6813
siesta:  132    -1481.4574    -1479.7121    -1479.7771  0.8724 -4.4795
siesta:  133    -1480.9279    -1479.6985    -1479.7883  0.2795 -4.4140
siesta:  134    -1481.0750    -1479.7160    -1479.8051  0.6081 -4.4882
siesta:  135    -1481.1286    -1479.6944    -1479.7626  0.5941 -4.4767
siesta:  136    -1481.1675    -1479.7045    -1479.7796  0.6430 -4.5003
siesta:  137    -1485.9269    -1479.7318    -1479.8189  0.6625 -4.4787
siesta:  138    -1481.0647    -1479.7573    -1479.7573  0.6468 -4.4971
siesta:  139    -1481.0395    -1479.7501    -1479.8284  0.4201 -4.4878
siesta:  140    -1480.8208    -1479.7869    -1479.8601  0.5029 -4.4428
siesta:  141    -1480.8333    -1479.7999    -1479.8980  0.4720 -4.4496
siesta:  142    -1480.9225    -1479.8079    -1479.8944  0.4900 -4.4636
siesta:  143    -1486.4376    -1479.7669    -1479.8403  0.6529 -4.4612
siesta:  144    -1480.8730    -1479.8225    -1479.8225  0.5240 -4.4536
siesta:  145    -1480.9827    -1479.8058    -1479.8890  0.3681 -4.4177
siesta:  146    -1481.0346    -1479.8102    -1479.8886  0.4994 -4.4608
siesta:  147    -1480.7595    -1479.8380    -1479.9101  0.3177 -4.4471
siesta:  148    -1480.8752    -1479.8603    -1479.9426  0.3889 -4.4342
siesta:  149    -1485.1963    -1479.8855    -1479.9718  0.6455 -4.5069
siesta:  150    -1480.9955    -1479.8911    -1479.8911  0.4944 -4.4750
siesta:  151    -1480.8844    -1479.9004    -1479.9770  0.3767 -4.4457
siesta:  152    -1480.8538    -1479.9059    -1479.9880  0.3649 -4.4389
siesta:  153    -1480.8184    -1480.0921    -1480.1811  0.4470 -4.4427
siesta:  154    -1480.8862    -1479.9770    -1480.0691  0.4603 -4.4248
siesta:  155    -1485.1199    -1480.0294    -1480.1436  0.6363 -4.5182
siesta:  156    -1480.7384    -1480.0092    -1480.0093  0.2635 -4.4393
siesta:  157    -1480.7204    -1480.0063    -1480.0962  0.1535 -4.4332
siesta:  158    -1481.0174    -1480.0222    -1480.1293  0.4466 -4.4670
siesta:  159    -1480.7190    -1480.0333    -1480.1089  0.1819 -4.4336
siesta:  160    -1480.7657    -1480.0511    -1480.1546  0.2921 -4.4303
siesta:  161    -1485.5440    -1480.0641    -1480.1799  0.6383 -4.5182
siesta:  162    -1480.7535    -1480.0588    -1480.0588  0.2180 -4.4323
siesta:  163    -1480.7215    -1480.0692    -1480.1812  0.2984 -4.4518
siesta:  164    -1481.0127    -1480.0406    -1480.1237  0.5819 -4.4671
siesta:  165    -1480.7734    -1480.0743    -1480.1568  0.2970 -4.4499
siesta:  166    -1480.9369    -1480.0735    -1480.1524  0.5478 -4.4403
siesta:  167    -1485.3594    -1480.0684    -1480.1630  0.6369 -4.5232
siesta:  168    -1480.9649    -1480.0774    -1480.0774  0.3613 -4.4109
siesta:  169    -1480.7535    -1480.0777    -1480.1813  0.2878 -4.5059
siesta:  170    -1482.1968    -1480.0839    -1480.1654  1.3329 -4.5324
siesta:  171    -1480.8894    -1480.0812    -1480.1808  0.5074 -4.5151
siesta:  172    -1480.9161    -1480.0805    -1480.1771  0.5308 -4.5114
siesta:  173    -1484.3855    -1480.0728    -1480.1707  0.6405 -4.5240
siesta:  174    -1481.1689    -1480.0772    -1480.0774  0.3989 -4.4060
siesta:  175    -1481.3161    -1480.0516    -1480.1514  0.5206 -4.5177
siesta:  176    -1484.3891    -1480.0427    -1480.1716  1.4266 -4.4210
siesta:  177    -1481.8350    -1480.0177    -1480.1000  0.7129 -4.5700
siesta:  178    -1481.2502    -1480.0218    -1480.1036  0.5910 -4.5249
siesta:  179    -1481.5000    -1480.0219    -1480.1437  0.6141 -4.5359
siesta:  180    -1482.3327    -1479.9681    -1480.0624  0.7729 -4.3921
siesta:  181    -1481.8740    -1479.9679    -1480.0264  0.5974 -4.5508
siesta:  182    -1486.7087    -1479.9210    -1480.0224  1.5539 -4.3815
siesta:  183    -1481.1424    -1479.9270    -1479.9862  0.5478 -4.5199
siesta:  184    -1481.2182    -1479.8364    -1479.9822  0.5256 -4.4125
siesta:  185    -1480.9527    -1479.8878    -1479.9901  0.5134 -4.4565
siesta:  186    -1481.1307    -1479.8925    -1479.9672  0.3480 -4.4183
siesta:  187    -1481.0696    -1479.8976    -1479.9696  0.5467 -4.5157
siesta:  188    -1481.1067    -1479.9164    -1480.0419  0.6626 -4.5064
siesta:  189    -1480.7956    -1479.9226    -1479.9901  0.3749 -4.4415
siesta:  190    -1481.0401    -1479.9530    -1480.0436  0.6570 -4.4627
siesta:  191    -1480.8089    -1479.9619    -1480.0338  0.5786 -4.4456
siesta:  192    -1480.9517    -1479.9665    -1480.0562  0.5109 -4.4410
siesta:  193    -1484.3831    -1479.9498    -1480.0155  0.6581 -4.5225
siesta:  194    -1481.2418    -1479.9611    -1479.9613  0.6354 -4.5102
siesta:  195    -1481.2903    -1479.9714    -1480.0677  0.4863 -4.4681
siesta:  196    -1481.4877    -1479.9743    -1480.0338  0.9845 -4.5010
siesta:  197    -1481.2584    -1479.9448    -1480.0735  0.3649 -4.4077
siesta:  198    -1480.9701    -1479.9562    -1480.0357  0.3291 -4.4277
siesta:  199    -1486.0645    -1479.9438    -1480.0382  0.6601 -4.4905
siesta:  200    -1480.6829    -1479.9724    -1479.9724  0.3629 -4.4653
siesta:  201    -1480.7496    -1479.9793    -1480.0688  0.3695 -4.4722
siesta:  202    -1483.0776    -1479.9719    -1480.0504  1.1920 -4.3647
siesta:  203    -1480.8971    -1479.9775    -1480.1195  0.4347 -4.4672
siesta:  204    -1480.6962    -1479.9846    -1480.0619  0.2852 -4.5028
siesta:  205    -1485.9334    -1479.9729    -1480.0580  0.6588 -4.4997
siesta:  206    -1480.6858    -1479.9907    -1479.9907  0.2917 -4.5028
siesta:  207    -1480.6960    -1479.9955    -1480.0815  0.2654 -4.5065
siesta:  208    -1484.8654    -1480.0037    -1480.0916  1.5597 -4.3084
siesta:  209    -1480.7756    -1479.9939    -1480.1029  0.4591 -4.5081
siesta:  210    -1480.6636    -1479.9947    -1480.0891  0.2402 -4.5143
siesta:  211    -1483.7964    -1479.9939    -1480.0969  0.6603 -4.5294
siesta:  212    -1480.6764    -1479.9943    -1479.9950  0.2761 -4.4885
siesta:  213    -1480.6767    -1479.9943    -1480.0770  0.2604 -4.4815
siesta:  214    -1484.7974    -1479.9991    -1480.0812  1.5599 -4.3095
siesta:  215    -1480.6727    -1479.9929    -1480.0896  0.2539 -4.4807
siesta:  216    -1480.6662    -1479.9932    -1480.0762  0.2538 -4.4828
siesta:  217    -1485.4354    -1479.9824    -1480.0655  0.6629 -4.5213
siesta:  218    -1480.6697    -1479.9945    -1479.9945  0.2223 -4.4845
siesta:  219    -1480.6638    -1479.9957    -1480.0797  0.2191 -4.4864
siesta:  220    -1483.7184    -1480.0226    -1480.1078  1.5033 -4.3612
siesta:  221    -1480.6871    -1480.0090    -1480.1272  0.1620 -4.4582
siesta:  222    -1480.6547    -1480.0189    -1480.1041  0.1481 -4.4500
siesta:  223    -1485.0157    -1480.0139    -1480.1092  0.6607 -4.5150
siesta:  224    -1480.6586    -1480.0247    -1480.0247  0.1368 -4.4447
siesta:  225    -1480.6598    -1480.0314    -1480.1312  0.1822 -4.4395
siesta:  226    -1482.4538    -1480.0475    -1480.1529  0.9321 -4.4309
siesta:  227    -1481.0578    -1480.0450    -1480.1474  0.6414 -4.4709
siesta:  228    -1481.0140    -1480.0497    -1480.1003  0.6066 -4.4536
siesta:  229    -1483.2917    -1480.0566    -1480.1061  0.6554 -4.5304
siesta:  230    -1481.0788    -1480.0548    -1480.0572  0.6179 -4.4667
siesta:  231    -1481.2809    -1480.0386    -1480.0888  0.5701 -4.4635
siesta:  232    -1481.3252    -1480.0338    -1480.0848  0.6167 -4.4973
siesta:  233    -1481.1655    -1480.0327    -1480.1277  0.5700 -4.4395
siesta:  234    -1480.8943    -1480.0078    -1480.0623  0.3515 -4.4849
siesta:  235    -1485.5614    -1480.0158    -1480.0924  0.6479 -4.5008
siesta:  236    -1480.6762    -1480.0328    -1480.0328  0.1762 -4.4453
siesta:  237    -1481.1218    -1480.0477    -1480.1538  0.6191 -4.4957
siesta:  238    -1480.9978    -1480.0510    -1480.1297  0.4916 -4.4732
siesta:  239    -1481.0403    -1480.0524    -1480.1186  0.4702 -4.4653
siesta:  240    -1481.1972    -1480.0529    -1480.1159  0.4739 -4.4697
siesta:  241    -1484.3168    -1480.0400    -1480.0991  0.6778 -4.5478
siesta:  242    -1480.8668    -1480.0419    -1480.0425  0.2214 -4.4065
siesta:  243    -1481.3877    -1480.0607    -1480.1626  0.7723 -4.5146
siesta:  244    -1480.9195    -1480.0506    -1480.1704  0.4737 -4.4415
siesta:  245    -1480.6714    -1480.0560    -1480.1577  0.2632 -4.4484
siesta:  246    -1480.7178    -1480.0654    -1480.1616  0.2033 -4.4258
siesta:  247    -1485.3523    -1480.0580    -1480.1681  0.6443 -4.5088
siesta:  248    -1480.7628    -1480.0762    -1480.0762  0.1888 -4.4209
siesta:  249    -1481.2761    -1480.0855    -1480.1900  0.6861 -4.5228
siesta:  250    -1480.7851    -1480.0867    -1480.2112  0.3460 -4.4347
siesta:  251    -1480.7648    -1480.0848    -1480.1815  0.3671 -4.4405
siesta:  252    -1480.9065    -1480.0891    -1480.1893  0.4326 -4.4188
siesta:  253    -1484.7876    -1480.0867    -1480.1909  0.6451 -4.5106
siesta:  254    -1481.0429    -1480.0876    -1480.0876  0.3403 -4.3953
siesta:  255    -1480.7679    -1480.0952    -1480.1917  0.2972 -4.4507
siesta:  256    -1480.7632    -1480.1044    -1480.1830  0.4441 -4.4438
siesta:  257    -1480.8058    -1480.1132    -1480.2193  0.4172 -4.4435
siesta:  258    -1480.8680    -1480.1156    -1480.2076  0.4696 -4.4437
siesta:  259    -1484.5261    -1480.1107    -1480.1961  0.6441 -4.5093
siesta:  260    -1480.8788    -1480.1198    -1480.1199  0.4451 -4.4401
siesta:  261    -1480.9342    -1480.1067    -1480.1914  0.4956 -4.4454
siesta:  262    -1480.9535    -1480.1213    -1480.1974  0.8288 -4.4395
siesta:  263    -1480.8096    -1480.1249    -1480.2270  0.2846 -4.4337
siesta:  264    -1480.7072    -1480.1285    -1480.2331  0.1837 -4.4333
siesta:  265    -1485.0272    -1480.1233    -1480.2350  0.6432 -4.5120
siesta:  266    -1480.7267    -1480.1379    -1480.1380  0.2063 -4.4307
siesta:  267    -1480.7070    -1480.1434    -1480.2541  0.1358 -4.4301
siesta:  268    -1480.8682    -1480.1490    -1480.2536  0.4888 -4.4547
siesta:  269    -1480.8381    -1480.1550    -1480.2388  0.4161 -4.4515
siesta:  270    -1480.8455    -1480.1566    -1480.2416  0.4422 -4.4501
siesta:  271    -1484.3774    -1480.1571    -1480.2435  0.6432 -4.5097
siesta:  272    -1480.8876    -1480.1626    -1480.1627  0.3961 -4.4571
siesta:  273    -1480.8865    -1480.1462    -1480.2266  0.4163 -4.5118
siesta:  274    -1480.6646    -1480.1644    -1480.2427  0.2137 -4.4479
siesta:  275    -1480.7094    -1480.1713    -1480.2781  0.1823 -4.4344
siesta:  276    -1480.7967    -1480.1759    -1480.2879  0.3303 -4.4278
siesta:  277    -1485.0029    -1480.1672    -1480.2743  0.6417 -4.5095
siesta:  278    -1480.8050    -1480.1822    -1480.1823  0.3047 -4.4399
siesta:  279    -1480.7035    -1480.1841    -1480.2863  0.1952 -4.4365
siesta:  280    -1480.6832    -1480.1892    -1480.2848  0.1126 -4.4368
siesta:  281    -1480.7084    -1480.1966    -1480.3078  0.2052 -4.4342
siesta:  282    -1480.7586    -1480.2004    -1480.3134  0.2524 -4.4296
siesta:  283    -1484.7275    -1480.1975    -1480.3066  0.6415 -4.5103
siesta:  284    -1480.7608    -1480.2071    -1480.2071  0.2520 -4.4371
siesta:  285    -1480.6852    -1480.2080    -1480.3143  0.1054 -4.4352
siesta:  286    -1480.6892    -1480.2152    -1480.3257  0.1376 -4.4363
siesta:  287    -1480.6919    -1480.2190    -1480.3320  0.1654 -4.4368
siesta:  288    -1480.7219    -1480.2227    -1480.3348  0.1724 -4.4319
siesta:  289    -1484.7574    -1480.2183    -1480.3310  0.6402 -4.5126
siesta:  290    -1480.7407    -1480.2293    -1480.2294  0.2387 -4.4373
siesta:  291    -1480.6837    -1480.2306    -1480.3402  0.2094 -4.4407
siesta:  292    -1480.6986    -1480.2350    -1480.3317  0.1618 -4.4355
siesta:  293    -1480.6883    -1480.2374    -1480.3449  0.2281 -4.4450
siesta:  294    -1480.7543    -1480.2400    -1480.3337  0.2388 -4.4265
siesta:  295    -1484.7931    -1480.2363    -1480.3480  0.6393 -4.5145
siesta:  296    -1481.3793    -1480.2437    -1480.2438  0.8001 -4.5321
siesta:  297    -1480.7043    -1480.2429    -1480.3539  0.2582 -4.4954
siesta:  298    -1480.7985    -1480.2434    -1480.3240  0.4481 -4.4759
siesta:  299    -1480.7179    -1480.2438    -1480.3207  0.2490 -4.5116
siesta:  300    -1480.9631    -1480.2433    -1480.3377  0.3538 -4.4104
siesta:  301    -1485.0060    -1480.2277    -1480.3311  0.6405 -4.5167
siesta:  302    -1482.8881    -1480.2401    -1480.2402  1.2571 -4.4320
siesta:  303    -1480.8630    -1480.2331    -1480.3328  0.4483 -4.5133
siesta:  304    -1480.8396    -1480.2336    -1480.3593  0.4283 -4.5158
siesta:  305    -1481.0184    -1480.2185    -1480.3425  0.4877 -4.5205
siesta:  306    -1481.5509    -1480.2002    -1480.3351  0.5409 -4.3958
siesta:  307    -1481.7890    -1480.2092    -1480.2902  0.5897 -4.5493
siesta:  308    -1485.9278    -1480.1800    -1480.2785  1.5925 -4.3643
siesta:  309    -1481.5362    -1480.1642    -1480.2368  0.7164 -4.5538
siesta:  310    -1481.1263    -1480.1462    -1480.2498  0.5509 -4.5113
siesta:  311    -1481.3364    -1480.1241    -1480.2596  0.5598 -4.5235
siesta:  312    -1482.9819    -1480.0141    -1480.1203  1.1180 -4.4232
siesta:  313    -1481.1979    -1480.0409    -1480.0928  0.4620 -4.4145
siesta:  314    -1480.7637    -1480.0606    -1480.1409  0.3591 -4.4972
siesta:  315    -1480.6644    -1480.0713    -1480.1643  0.3550 -4.4926
siesta:  316    -1480.7125    -1480.0766    -1480.1627  0.3457 -4.4830
siesta:  317    -1484.5157    -1480.0551    -1480.1381  0.6622 -4.5155
siesta:  318    -1481.6707    -1480.0637    -1480.0637  1.0170 -4.5229
siesta:  319    -1480.8332    -1480.0749    -1480.1930  0.3028 -4.4378
siesta:  320    -1480.7132    -1480.0800    -1480.1643  0.2791 -4.4470
siesta:  321    -1480.7135    -1480.0838    -1480.1772  0.4049 -4.4395
siesta:  322    -1480.7129    -1480.0898    -1480.1971  0.2402 -4.4308
siesta:  323    -1485.1447    -1480.0823    -1480.1885  0.6609 -4.5141
siesta:  324    -1481.3409    -1480.1039    -1480.1039  0.7848 -4.5263
siesta:  325    -1480.8216    -1480.1012    -1480.2248  0.4475 -4.4156
siesta:  326    -1480.9408    -1480.1035    -1480.2083  0.5042 -4.4327
siesta:  327    -1480.9559    -1480.1065    -1480.1883  0.4717 -4.4488
siesta:  328    -1481.3561    -1480.0977    -1480.1668  0.9246 -4.4612
siesta:  329    -1486.0763    -1480.0807    -1480.1572  0.6888 -4.4847
siesta:  330    -1480.6947    -1480.1031    -1480.1032  0.2856 -4.4560
siesta:  331    -1481.4142    -1480.1067    -1480.1939  0.6939 -4.4416
siesta:  332    -1480.8427    -1480.1117    -1480.1889  0.4354 -4.4622
siesta:  333    -1480.8367    -1480.1185    -1480.1918  0.3785 -4.4289
siesta:  334    -1480.8627    -1480.1228    -1480.2139  0.5342 -4.4352
siesta:  335    -1484.1743    -1480.1226    -1480.2232  0.6519 -4.5219
siesta:  336    -1480.7890    -1480.1233    -1480.1235  0.3973 -4.4422
siesta:  337    -1481.2206    -1480.1348    -1480.2159  0.6884 -4.5083
siesta:  338    -1480.8771    -1480.1307    -1480.2193  0.4415 -4.4283
siesta:  339    -1480.8567    -1480.1420    -1480.2323  0.4381 -4.4416
siesta:  340    -1480.9649    -1480.1447    -1480.2235  0.5311 -4.4596
siesta:  341    -1483.0064    -1480.1524    -1480.2206  0.6471 -4.5226
siesta:  342    -1480.9833    -1480.1392    -1480.1450  0.4903 -4.4131
siesta:  343    -1480.7419    -1480.1490    -1480.2618  0.3628 -4.4334
siesta:  344    -1480.9897    -1480.1598    -1480.2622  0.5294 -4.4672
siesta:  345    -1480.9167    -1480.1566    -1480.2296  0.5262 -4.4454
siesta:  346    -1480.8553    -1480.1529    -1480.2412  0.4692 -4.4340
siesta:  347    -1485.4400    -1480.1256    -1480.2243  0.6520 -4.5194
siesta:  348    -1480.9755    -1480.1507    -1480.1507  0.6339 -4.4293
siesta:  349    -1480.7238    -1480.1447    -1480.2499  0.2858 -4.4998
siesta:  350    -1480.8000    -1480.1597    -1480.2377  0.3339 -4.4255
siesta:  351    -1480.7095    -1480.1627    -1480.2687  0.1786 -4.4361
siesta:  352    -1480.9799    -1480.1653    -1480.2715  0.5455 -4.4335
siesta:  353    -1485.0552    -1480.1578    -1480.2550  0.6484 -4.5152
siesta:  354    -1480.8515    -1480.1726    -1480.1726  0.5482 -4.4349
siesta:  355    -1480.7202    -1480.1738    -1480.2780  0.2838 -4.4513
siesta:  356    -1480.8000    -1480.1787    -1480.2587  0.3712 -4.4234
siesta:  357    -1480.8270    -1480.1801    -1480.2877  0.4148 -4.4381
siesta:  358    -1480.7777    -1480.1866    -1480.2821  0.3905 -4.4318
siesta:  359    -1484.1286    -1480.1881    -1480.2988  0.6474 -4.5156
siesta:  360    -1480.9670    -1480.1922    -1480.1925  0.5623 -4.4549
siesta:  361    -1480.7885    -1480.1882    -1480.2673  0.4377 -4.4607
siesta:  362    -1481.0049    -1480.1945    -1480.2716  0.4980 -4.4220
siesta:  363    -1480.8061    -1480.1942    -1480.2841  0.4241 -4.4615
siesta:  364    -1480.8676    -1480.1978    -1480.2765  0.3683 -4.4252
siesta:  365    -1484.1777    -1480.1976    -1480.3100  0.6462 -4.5174
siesta:  366    -1480.8903    -1480.2031    -1480.2033  0.4070 -4.4435
siesta:  367    -1480.8239    -1480.1961    -1480.2867  0.5005 -4.5091
siesta:  368    -1481.0708    -1480.2054    -1480.2989  0.5153 -4.4304
siesta:  369    -1480.8028    -1480.2007    -1480.2815  0.4057 -4.5101
siesta:  370    -1480.8396    -1480.2054    -1480.2989  0.4023 -4.4657
siesta:  371    -1483.8105    -1480.2071    -1480.2852  0.6482 -4.5228
siesta:  372    -1481.3186    -1480.2071    -1480.2079  0.5473 -4.4895
siesta:  373    -1480.8302    -1480.2018    -1480.2717  0.5131 -4.5161
siesta:  374    -1481.3865    -1480.2067    -1480.3164  0.5836 -4.4743
siesta:  375    -1480.8686    -1480.2011    -1480.2720  0.4016 -4.5115
siesta:  376    -1480.8169    -1480.2014    -1480.3053  0.4526 -4.5178
siesta:  377    -1482.8021    -1480.2061    -1480.3275  0.6460 -4.5341
siesta:  378    -1481.4988    -1480.2026    -1480.2151  0.6088 -4.5007
siesta:  379    -1480.8696    -1480.1965    -1480.2697  0.5224 -4.5181
siesta:  380    -1481.6561    -1480.1959    -1480.3144  0.6731 -4.4868
siesta:  381    -1480.9686    -1480.1877    -1480.2651  0.3992 -4.5078
siesta:  382    -1480.9597    -1480.1846    -1480.2963  0.5152 -4.5147
siesta:  383    -1481.5243    -1480.1886    -1480.3246  0.5876 -4.5386
siesta:  384    -1481.8505    -1480.1804    -1480.2847  1.1085 -4.4522
siesta:  385    -1481.3856    -1480.1700    -1480.2376  0.6307 -4.5227
siesta:  386    -1482.4784    -1480.1589    -1480.2643  1.3085 -4.4166
siesta:  387    -1481.7554    -1480.1286    -1480.1551  0.6224 -4.4716
siesta:  388    -1481.6590    -1480.1134    -1480.1937  0.6644 -4.5417
siesta:  389    -1481.0508    -1480.1133    -1480.1993  0.5015 -4.5144
siesta:  390    -1483.1712    -1480.0864    -1480.2217  1.4484 -4.5202
siesta:  391    -1481.4117    -1480.0974    -1480.1412  0.5568 -4.5306
siesta:  392    -1481.9938    -1480.0865    -1480.1956  1.1974 -4.4019
siesta:  393    -1482.0518    -1480.0533    -1480.1233  0.6426 -4.3805
siesta:  394    -1481.8914    -1480.0540    -1480.1451  0.5633 -4.5468
siesta:  395    -1481.7432    -1480.0321    -1480.1180  0.5939 -4.5553
siesta:  396    -1482.1957    -1480.0121    -1480.1088  1.1950 -4.4318
siesta:  397    -1481.9493    -1480.0032    -1480.0890  0.5580 -4.5537
siesta:  398    -1483.6950    -1479.9312    -1480.0173  1.3359 -4.3817
siesta:  399    -1483.0021    -1479.8579    -1479.9145  0.6524 -4.3813
siesta:  400    -1482.0462    -1479.9012    -1479.9720  0.6105 -4.5322
siesta:  401    -1482.3235    -1479.9003    -1479.9667  0.6212 -4.5416
siesta:  402    -1484.3458    -1479.8344    -1479.8789  1.5107 -4.4537
siesta:  403    -1482.2390    -1479.8189    -1479.8748  0.6404 -4.5434
siesta:  404    -1483.6474    -1479.6568    -1479.7158  1.2698 -4.4761
siesta:  405    -1482.9380    -1479.6153    -1479.6702  0.6502 -4.4186
siesta:  406    -1481.3785    -1479.6454    -1479.6565  0.5200 -4.5326
siesta:  407    -1480.9177    -1479.6673    -1479.7678  0.4395 -4.5407
siesta:  408    -1482.1978    -1479.6624    -1479.7927  1.1541 -4.5558
siesta:  409    -1480.7415    -1479.6685    -1479.7839  0.3639 -4.5354
siesta:  410    -1481.3660    -1479.6820    -1479.8067  0.8481 -4.4011
siesta:  411    -1480.9697    -1479.6936    -1479.8048  0.3015 -4.4291
siesta:  412    -1481.5352    -1479.7096    -1479.7958  0.5414 -4.5310
siesta:  413    -1480.8149    -1479.7090    -1479.8173  0.3419 -4.4235
siesta:  414    -1483.0581    -1479.7247    -1479.8235  1.2391 -4.3942
siesta:  415    -1481.1003    -1479.7285    -1479.8356  0.6229 -4.4393
siesta:  416    -1481.8257    -1479.7296    -1479.7759  0.9287 -4.5092
siesta:  417    -1481.0760    -1479.7320    -1479.8499  0.5985 -4.4498
siesta:  418    -1488.9110    -1479.6708    -1479.7117  0.7531 -4.4479
siesta:  419    -1481.3664    -1479.7194    -1479.7205  0.4900 -4.4259
siesta:  420    -1480.7666    -1479.7429    -1479.8173  0.4035 -4.4879
siesta:  421    -1480.7561    -1479.7617    -1479.8393  0.2243 -4.4395
siesta:  422    -1481.7566    -1479.7680    -1479.8689  0.9255 -4.4938
siesta:  423    -1480.8276    -1479.7696    -1479.8722  0.2885 -4.4613
siesta:  424    -1486.3890    -1479.7595    -1479.8370  0.6848 -4.4703
siesta:  425    -1480.7811    -1479.7991    -1479.7991  0.3322 -4.4266
siesta:  426    -1480.8054    -1479.8053    -1479.9072  0.3834 -4.4274
siesta:  427    -1480.8802    -1479.8094    -1479.9014  0.4558 -4.4284
siesta:  428    -1482.5684    -1479.8193    -1479.9012  0.9131 -4.4082
siesta:  429    -1480.9960    -1479.8183    -1479.9203  0.5779 -4.4147
siesta:  430    -1486.4177    -1479.8051    -1479.9016  0.7131 -4.4671
siesta:  431    -1481.1079    -1479.8339    -1479.8339  0.5336 -4.4366
siesta:  432    -1481.2695    -1479.8147    -1479.8672  0.5475 -4.4121
siesta:  433    -1481.0755    -1479.8228    -1479.9234  0.3571 -4.4111
siesta:  434    -1481.0475    -1479.8441    -1479.9370  0.6082 -4.4885
siesta:  435    -1481.2657    -1479.8480    -1479.9076  0.7225 -4.4485
siesta:  436    -1487.3246    -1479.8063    -1479.8837  0.6719 -4.4377
siesta:  437    -1480.7268    -1479.8539    -1479.8539  0.2402 -4.4334
siesta:  438    -1481.2036    -1479.8689    -1479.9726  0.6703 -4.4892
siesta:  439    -1481.3764    -1479.8778    -1479.9524  0.5840 -4.4915
siesta:  440    -1481.0024    -1479.8798    -1479.9428  0.5316 -4.4450
siesta:  441    -1481.0406    -1479.8747    -1479.9385  0.6298 -4.4359
siesta:  442    -1487.3299    -1479.8205    -1479.8876  0.6625 -4.4806
siesta:  443    -1480.9391    -1479.8670    -1479.8670  0.2936 -4.4567
siesta:  444    -1481.3954    -1479.8943    -1479.9675  0.7684 -4.5311
siesta:  445    -1480.7487    -1479.8964    -1480.0128  0.3270 -4.4468
siesta:  446    -1480.7695    -1479.9026    -1479.9867  0.2773 -4.4347
siesta:  447    -1480.7594    -1479.9066    -1480.0030  0.1994 -4.4274
siesta:  448    -1486.5279    -1479.8852    -1479.9832  0.6585 -4.4588
siesta:  449    -1480.7497    -1479.9272    -1479.9272  0.1821 -4.4260
siesta:  450    -1481.8168    -1479.9475    -1480.0521  0.9004 -4.4750
siesta:  451    -1480.7657    -1479.9388    -1480.0379  0.2687 -4.4353
siesta:  452    -1480.7178    -1479.9446    -1480.0366  0.2989 -4.4460
siesta:  453    -1480.7239    -1479.9525    -1480.0398  0.2650 -4.4372
siesta:  454    -1486.5392    -1479.9462    -1480.0376  0.6525 -4.4646
siesta:  455    -1480.7438    -1479.9693    -1479.9693  0.3038 -4.4576
siesta:  456    -1484.2511    -1479.9162    -1479.9953  1.5575 -4.3079
siesta:  457    -1480.7235    -1479.9247    -1480.0398  0.3401 -4.4792
siesta:  458    -1480.7171    -1479.9577    -1480.0347  0.3833 -4.4873
siesta:  459    -1480.7541    -1479.9424    -1480.0237  0.3516 -4.4946
siesta:  460    -1486.5364    -1479.9368    -1480.0179  0.6552 -4.4587
siesta:  461    -1480.7592    -1479.9237    -1479.9237  0.4025 -4.5137
siesta:  462    -1485.9779    -1479.9264    -1480.0137  1.5563 -4.2779
siesta:  463    -1480.8111    -1479.9326    -1479.9674  0.3391 -4.4860
siesta:  464    -1480.7373    -1479.9277    -1480.0099  0.2965 -4.5006
siesta:  465    -1480.6844    -1479.9282    -1480.0153  0.2893 -4.5064
siesta:  466    -1485.5787    -1479.9121    -1480.0027  0.6547 -4.5085
siesta:  467    -1480.8152    -1479.9200    -1479.9200  0.4724 -4.4951
siesta:  468    -1485.1384    -1479.9323    -1480.0121  1.5436 -4.3059
siesta:  469    -1480.7199    -1479.9238    -1479.9834  0.3282 -4.4918
siesta:  470    -1480.7130    -1479.9232    -1480.0054  0.2672 -4.4909
siesta:  471    -1480.6810    -1479.9241    -1480.0068  0.2673 -4.4942
siesta:  472    -1485.5359    -1479.9099    -1479.9939  0.6550 -4.5102
siesta:  473    -1480.7192    -1479.9229    -1479.9229  0.3177 -4.4915
siesta:  474    -1485.2631    -1479.9301    -1480.0120  1.5503 -4.3032
siesta:  475    -1480.6700    -1479.9236    -1479.9894  0.2567 -4.4971
siesta:  476    -1480.6794    -1479.9240    -1480.0112  0.2593 -4.4954
siesta:  477    -1480.6673    -1479.9245    -1480.0109  0.2419 -4.4981
siesta:  478    -1485.7267    -1479.9171    -1480.0051  0.6900 -4.4947
siesta:  479    -1480.6617    -1479.9293    -1479.9293  0.2221 -4.4874
siesta:  480    -1483.7866    -1479.9600    -1480.0462  1.5206 -4.3506
siesta:  481    -1480.6907    -1479.9415    -1480.0582  0.1898 -4.4554
siesta:  482    -1480.6763    -1479.9507    -1480.0373  0.1682 -4.4466
siesta:  483    -1480.6644    -1479.9610    -1480.0550  0.1625 -4.4387
siesta:  484    -1485.3092    -1479.9451    -1480.0508  0.6623 -4.5191
siesta:  485    -1480.6719    -1479.9664    -1479.9664  0.1927 -4.4359
siesta:  486    -1482.7141    -1479.9816    -1480.0878  0.9848 -4.3999
siesta:  487    -1481.1297    -1479.9811    -1480.1041  0.6211 -4.4701
siesta:  488    -1481.1798    -1479.9843    -1480.0354  0.5954 -4.4612
siesta:  489    -1481.1159    -1479.9881    -1480.0358  0.6649 -4.4637
siesta:  490    -1484.1639    -1479.9989    -1480.0554  0.7285 -4.5042
siesta:  491    -1481.9001    -1479.9553    -1479.9556  0.5755 -4.3954
siesta:  492    -1480.8478    -1479.9787    -1480.0446  0.4749 -4.4589
siesta:  493    -1481.4817    -1479.9912    -1480.0685  1.1817 -4.4790
siesta:  494    -1480.9938    -1479.9962    -1480.0545  0.5020 -4.4158
siesta:  495    -1480.8942    -1480.0060    -1480.0916  0.4658 -4.4290
siesta:  496    -1485.2248    -1479.9809    -1480.0560  0.6921 -4.5396
siesta:  497    -1480.9051    -1480.0046    -1480.0046  0.4253 -4.4266
siesta:  498    -1480.8731    -1479.9913    -1480.0634  0.4303 -4.4175
siesta:  499    -1481.0883    -1480.0072    -1480.1220  0.5472 -4.4151

siesta: E_KS(eV) =            -1480.0086

siesta: E_KS - E_eggbox =     -1480.0086

siesta: Atomic forces (eV/Ang):
----------------------------------------
   Tot    0.000000    0.000130   -0.008447
----------------------------------------
   Max    3.039974
   Res    1.687064    sqrt( Sum f_i^2 / 3N )
----------------------------------------
   Max    3.039974    constrained

Stress-tensor-Voigt (kbar):       -0.01       14.39       14.21       -0.00        0.34       -0.00
(Free)E + p*V (eV/cell)    -1501.6647
Target enthalpy (eV/cell)    -1480.1115

siesta: Stress tensor (static) (eV/Ang**3):
        -0.000005   -0.000000   -0.000000
        -0.000000    0.008983    0.000211
        -0.000000    0.000210    0.008872

siesta: Pressure (static):         -9.53259507  kBar

siesta: Stress tensor (total) (eV/Ang**3):
        -0.000005   -0.000000   -0.000000
        -0.000000    0.008983    0.000211
        -0.000000    0.000210    0.008872

siesta: Pressure (total):         -9.53259507  kBar

siesta: Temp_ion =       0.000 K

* Maximum dynamic memory allocated =    59 MB

coxmol: Writing XMOL coordinates into file graphene.xyz                                                    
Computing bands...

siesta: Band energies (eV):
  ik is    eps
   1  1 -13.54 -13.50 -13.02 -12.95 -12.92 -12.18 -11.64 -11.63 -11.30 -10.69
         -5.78  -5.65  -4.94  -4.86  -4.76  -4.75  -4.70  -4.69  -4.68  -4.40
         -4.38  -4.35  -4.33  -4.27  -4.23  -3.99  -3.86  -3.41  -3.38  -3.30
         -2.89  -2.35  -2.34  -2.31  -2.15  -1.91  -1.42  -1.41  -1.13  -0.34
   2  1 -13.54 -13.50 -13.02 -12.95 -12.92 -12.18 -11.64 -11.63 -11.30 -10.69
         -5.78  -5.65  -4.94  -4.86  -4.76  -4.75  -4.70  -4.69  -4.68  -4.40
         -4.38  -4.35  -4.33  -4.27  -4.23  -3.99  -3.86  -3.41  -3.38  -3.30
         -2.89  -2.35  -2.34  -2.31  -2.15  -1.91  -1.42  -1.41  -1.13  -0.34
   3  1 -13.54 -13.50 -13.02 -12.95 -12.92 -12.18 -11.64 -11.63 -11.30 -10.69
         -5.78  -5.65  -4.94  -4.86  -4.76  -4.75  -4.70  -4.69  -4.68  -4.40
         -4.38  -4.35  -4.33  -4.27  -4.23  -3.99  -3.86  -3.41  -3.38  -3.30
         -2.89  -2.35  -2.34  -2.31  -2.15  -1.91  -1.42  -1.41  -1.13  -0.34
   4  1 -13.54 -13.50 -13.02 -12.95 -12.92 -12.18 -11.64 -11.63 -11.30 -10.69
         -5.78  -5.65  -4.94  -4.86  -4.76  -4.75  -4.70  -4.69  -4.68  -4.40
         -4.38  -4.35  -4.33  -4.27  -4.23  -3.99  -3.86  -3.41  -3.38  -3.30
         -2.89  -2.35  -2.34  -2.31  -2.15  -1.91  -1.42  -1.41  -1.13  -0.34
   5  1 -13.54 -13.50 -13.02 -12.95 -12.92 -12.18 -11.64 -11.63 -11.30 -10.69
         -5.78  -5.65  -4.94  -4.86  -4.76  -4.75  -4.70  -4.69  -4.68  -4.40
         -4.38  -4.35  -4.33  -4.27  -4.23  -3.99  -3.86  -3.41  -3.38  -3.30
         -2.89  -2.35  -2.34  -2.31  -2.15  -1.91  -1.42  -1.41  -1.13  -0.34
   6  1 -13.54 -13.50 -13.02 -12.95 -12.92 -12.18 -11.64 -11.63 -11.30 -10.69
         -5.78  -5.65  -4.94  -4.86  -4.76  -4.75  -4.70  -4.69  -4.68  -4.40
         -4.38  -4.35  -4.33  -4.27  -4.23  -3.99  -3.86  -3.41  -3.38  -3.30
         -2.89  -2.35  -2.34  -2.31  -2.15  -1.91  -1.42  -1.41  -1.13  -0.34
   7  1 -13.54 -13.50 -13.02 -12.95 -12.92 -12.18 -11.64 -11.63 -11.30 -10.69
         -5.78  -5.65  -4.94  -4.86  -4.76  -4.75  -4.70  -4.69  -4.68  -4.40
         -4.38  -4.35  -4.33  -4.27  -4.23  -3.99  -3.86  -3.41  -3.38  -3.30
         -2.89  -2.35  -2.34  -2.31  -2.15  -1.91  -1.42  -1.41  -1.13  -0.34
   8  1 -13.54 -13.50 -13.02 -12.95 -12.92 -12.18 -11.64 -11.63 -11.30 -10.69
         -5.78  -5.65  -4.94  -4.86  -4.76  -4.75  -4.70  -4.69  -4.68  -4.40
         -4.38  -4.35  -4.33  -4.27  -4.23  -3.99  -3.86  -3.41  -3.38  -3.30
         -2.89  -2.35  -2.34  -2.31  -2.15  -1.91  -1.42  -1.41  -1.13  -0.34
   9  1 -13.54 -13.50 -13.02 -12.95 -12.92 -12.18 -11.64 -11.63 -11.30 -10.69
         -5.78  -5.65  -4.94  -4.86  -4.76  -4.75  -4.70  -4.69  -4.68  -4.40
         -4.38  -4.35  -4.33  -4.27  -4.23  -3.99  -3.86  -3.41  -3.38  -3.30
         -2.89  -2.35  -2.34  -2.31  -2.15  -1.91  -1.42  -1.41  -1.13  -0.34
  10  1 -13.54 -13.50 -13.02 -12.95 -12.92 -12.18 -11.64 -11.63 -11.30 -10.69
         -5.78  -5.65  -4.94  -4.86  -4.76  -4.75  -4.70  -4.69  -4.68  -4.40
         -4.38  -4.35  -4.33  -4.27  -4.23  -3.99  -3.86  -3.41  -3.38  -3.30
         -2.89  -2.35  -2.34  -2.31  -2.15  -1.91  -1.42  -1.41  -1.13  -0.34
  11  1 -13.54 -13.50 -13.02 -12.95 -12.92 -12.18 -11.64 -11.63 -11.30 -10.69
         -5.78  -5.65  -4.94  -4.86  -4.76  -4.75  -4.70  -4.69  -4.68  -4.40
         -4.38  -4.35  -4.33  -4.27  -4.23  -3.99  -3.86  -3.41  -3.38  -3.30
         -2.89  -2.35  -2.34  -2.31  -2.15  -1.91  -1.42  -1.41  -1.13  -0.34
  12  1 -13.54 -13.50 -13.02 -12.95 -12.92 -12.18 -11.64 -11.63 -11.30 -10.69
         -5.78  -5.65  -4.94  -4.86  -4.76  -4.75  -4.70  -4.69  -4.68  -4.40
         -4.38  -4.35  -4.33  -4.27  -4.23  -3.99  -3.86  -3.41  -3.38  -3.30
         -2.89  -2.35  -2.34  -2.31  -2.15  -1.91  -1.42  -1.41  -1.13  -0.34
  13  1 -13.54 -13.50 -13.02 -12.95 -12.92 -12.18 -11.64 -11.63 -11.30 -10.69
         -5.78  -5.65  -4.94  -4.86  -4.76  -4.75  -4.70  -4.69  -4.68  -4.40
         -4.38  -4.35  -4.33  -4.27  -4.23  -3.99  -3.86  -3.41  -3.38  -3.30
         -2.89  -2.35  -2.34  -2.31  -2.15  -1.91  -1.42  -1.41  -1.13  -0.34
  14  1 -13.54 -13.50 -13.02 -12.95 -12.92 -12.18 -11.64 -11.63 -11.30 -10.69
         -5.78  -5.65  -4.94  -4.86  -4.76  -4.75  -4.70  -4.69  -4.68  -4.40
         -4.38  -4.35  -4.33  -4.27  -4.23  -3.99  -3.86  -3.41  -3.38  -3.30
         -2.89  -2.35  -2.34  -2.31  -2.15  -1.91  -1.42  -1.41  -1.13  -0.34
  15  1 -13.54 -13.50 -13.02 -12.95 -12.92 -12.18 -11.64 -11.63 -11.30 -10.69
         -5.78  -5.65  -4.94  -4.86  -4.76  -4.75  -4.70  -4.69  -4.68  -4.40
         -4.38  -4.35  -4.33  -4.27  -4.23  -3.99  -3.86  -3.41  -3.38  -3.30
         -2.89  -2.35  -2.34  -2.31  -2.15  -1.91  -1.42  -1.41  -1.13  -0.34
  16  1 -13.54 -13.50 -13.02 -12.95 -12.92 -12.18 -11.64 -11.63 -11.30 -10.69
         -5.78  -5.65  -4.94  -4.86  -4.76  -4.75  -4.70  -4.69  -4.68  -4.40
         -4.38  -4.35  -4.33  -4.27  -4.23  -3.99  -3.86  -3.41  -3.38  -3.30
         -2.89  -2.35  -2.34  -2.31  -2.15  -1.91  -1.42  -1.41  -1.13  -0.34
  17  1 -13.54 -13.50 -13.02 -12.95 -12.92 -12.18 -11.64 -11.63 -11.30 -10.69
         -5.78  -5.65  -4.94  -4.86  -4.76  -4.75  -4.70  -4.69  -4.68  -4.40
         -4.38  -4.35  -4.33  -4.27  -4.23  -3.99  -3.86  -3.41  -3.38  -3.30
         -2.89  -2.35  -2.34  -2.31  -2.15  -1.91  -1.42  -1.41  -1.13  -0.34
  18  1 -13.54 -13.50 -13.02 -12.95 -12.92 -12.18 -11.64 -11.63 -11.30 -10.69
         -5.78  -5.65  -4.94  -4.86  -4.76  -4.75  -4.70  -4.69  -4.68  -4.40
         -4.38  -4.35  -4.33  -4.27  -4.23  -3.99  -3.86  -3.41  -3.38  -3.30
         -2.89  -2.35  -2.34  -2.31  -2.15  -1.91  -1.42  -1.41  -1.13  -0.34
  19  1 -13.54 -13.50 -13.02 -12.95 -12.92 -12.18 -11.64 -11.63 -11.30 -10.69
         -5.78  -5.65  -4.94  -4.86  -4.76  -4.75  -4.70  -4.69  -4.68  -4.40
         -4.38  -4.35  -4.33  -4.27  -4.23  -3.99  -3.86  -3.41  -3.38  -3.30
         -2.89  -2.35  -2.34  -2.31  -2.15  -1.91  -1.42  -1.41  -1.13  -0.34
  20  1 -13.54 -13.50 -13.02 -12.95 -12.92 -12.18 -11.64 -11.63 -11.30 -10.69
         -5.78  -5.65  -4.94  -4.86  -4.76  -4.75  -4.70  -4.69  -4.68  -4.40
         -4.38  -4.35  -4.33  -4.27  -4.23  -3.99  -3.86  -3.41  -3.38  -3.30
         -2.89  -2.35  -2.34  -2.31  -2.15  -1.91  -1.42  -1.41  -1.13  -0.34
  21  1 -13.54 -13.50 -13.02 -12.95 -12.92 -12.18 -11.64 -11.63 -11.30 -10.69
         -5.78  -5.65  -4.94  -4.86  -4.76  -4.75  -4.70  -4.69  -4.68  -4.40
         -4.38  -4.35  -4.33  -4.27  -4.23  -3.99  -3.86  -3.41  -3.38  -3.30
         -2.89  -2.35  -2.34  -2.31  -2.15  -1.91  -1.42  -1.41  -1.13  -0.34
  22  1 -13.54 -13.50 -13.02 -12.95 -12.92 -12.18 -11.64 -11.63 -11.30 -10.69
         -5.78  -5.65  -4.94  -4.86  -4.76  -4.75  -4.70  -4.69  -4.68  -4.40
         -4.38  -4.35  -4.33  -4.27  -4.23  -3.99  -3.86  -3.41  -3.38  -3.30
         -2.89  -2.35  -2.34  -2.31  -2.15  -1.91  -1.42  -1.41  -1.13  -0.34
  23  1 -13.54 -13.50 -13.02 -12.95 -12.92 -12.18 -11.64 -11.63 -11.30 -10.69
         -5.78  -5.65  -4.94  -4.86  -4.76  -4.75  -4.70  -4.69  -4.68  -4.40
         -4.38  -4.35  -4.33  -4.27  -4.23  -3.99  -3.86  -3.41  -3.38  -3.30
         -2.89  -2.35  -2.34  -2.31  -2.15  -1.91  -1.42  -1.41  -1.13  -0.34
  24  1 -13.54 -13.50 -13.02 -12.95 -12.92 -12.18 -11.64 -11.63 -11.30 -10.69
         -5.78  -5.65  -4.94  -4.86  -4.76  -4.75  -4.70  -4.69  -4.68  -4.40
         -4.38  -4.35  -4.33  -4.27  -4.23  -3.99  -3.86  -3.41  -3.38  -3.30
         -2.89  -2.35  -2.34  -2.31  -2.15  -1.91  -1.42  -1.41  -1.13  -0.34
  25  1 -13.54 -13.50 -13.02 -12.95 -12.92 -12.18 -11.64 -11.63 -11.30 -10.69
         -5.78  -5.65  -4.94  -4.86  -4.76  -4.75  -4.70  -4.69  -4.68  -4.40
         -4.38  -4.35  -4.33  -4.27  -4.23  -3.99  -3.86  -3.41  -3.38  -3.30
         -2.89  -2.35  -2.34  -2.31  -2.15  -1.91  -1.42  -1.41  -1.13  -0.34
  26  1 -13.54 -13.50 -13.02 -12.95 -12.92 -12.18 -11.64 -11.63 -11.30 -10.69
         -5.78  -5.65  -4.94  -4.86  -4.76  -4.75  -4.70  -4.69  -4.68  -4.40
         -4.38  -4.35  -4.33  -4.27  -4.23  -3.99  -3.86  -3.41  -3.38  -3.30
         -2.89  -2.35  -2.34  -2.31  -2.15  -1.91  -1.42  -1.41  -1.13  -0.34
  27  1 -13.54 -13.50 -13.02 -12.95 -12.92 -12.18 -11.64 -11.63 -11.30 -10.69
         -5.78  -5.65  -4.94  -4.86  -4.76  -4.75  -4.70  -4.69  -4.68  -4.40
         -4.38  -4.35  -4.33  -4.27  -4.23  -3.99  -3.86  -3.41  -3.38  -3.30
         -2.89  -2.35  -2.34  -2.31  -2.15  -1.91  -1.42  -1.41  -1.13  -0.34
  28  1 -13.54 -13.50 -13.02 -12.95 -12.92 -12.18 -11.64 -11.63 -11.30 -10.69
         -5.78  -5.65  -4.94  -4.86  -4.76  -4.75  -4.70  -4.69  -4.68  -4.40
         -4.38  -4.35  -4.33  -4.27  -4.23  -3.99  -3.86  -3.41  -3.38  -3.30
         -2.89  -2.35  -2.34  -2.31  -2.15  -1.91  -1.42  -1.41  -1.13  -0.34
  29  1 -13.54 -13.50 -13.02 -12.95 -12.92 -12.18 -11.64 -11.63 -11.30 -10.69
         -5.78  -5.65  -4.94  -4.86  -4.76  -4.75  -4.70  -4.69  -4.68  -4.40
         -4.38  -4.35  -4.33  -4.27  -4.23  -3.99  -3.86  -3.41  -3.38  -3.30
         -2.89  -2.35  -2.34  -2.31  -2.15  -1.91  -1.42  -1.41  -1.13  -0.34
  30  1 -13.54 -13.50 -13.02 -12.95 -12.92 -12.18 -11.64 -11.63 -11.30 -10.69
         -5.78  -5.65  -4.94  -4.86  -4.76  -4.75  -4.70  -4.69  -4.68  -4.40
         -4.38  -4.35  -4.33  -4.27  -4.23  -3.99  -3.86  -3.41  -3.38  -3.30
         -2.89  -2.35  -2.34  -2.31  -2.15  -1.91  -1.42  -1.41  -1.13  -0.34
  31  1 -13.54 -13.50 -13.02 -12.95 -12.92 -12.18 -11.64 -11.63 -11.30 -10.69
         -5.78  -5.65  -4.94  -4.86  -4.76  -4.75  -4.70  -4.69  -4.68  -4.40
         -4.38  -4.35  -4.33  -4.27  -4.23  -3.99  -3.86  -3.41  -3.38  -3.30
         -2.89  -2.35  -2.34  -2.31  -2.15  -1.91  -1.42  -1.41  -1.13  -0.34
  32  1 -13.54 -13.50 -13.02 -12.95 -12.92 -12.18 -11.64 -11.63 -11.30 -10.69
         -5.78  -5.65  -4.94  -4.86  -4.76  -4.75  -4.70  -4.69  -4.68  -4.40
         -4.38  -4.35  -4.33  -4.27  -4.23  -3.99  -3.86  -3.41  -3.38  -3.30
         -2.89  -2.35  -2.34  -2.31  -2.15  -1.91  -1.42  -1.41  -1.13  -0.34
  33  1 -13.54 -13.50 -13.02 -12.95 -12.92 -12.18 -11.64 -11.63 -11.30 -10.69
         -5.78  -5.65  -4.94  -4.86  -4.76  -4.75  -4.70  -4.69  -4.68  -4.40
         -4.38  -4.35  -4.33  -4.27  -4.23  -3.99  -3.86  -3.41  -3.38  -3.30
         -2.89  -2.35  -2.34  -2.31  -2.15  -1.91  -1.42  -1.41  -1.13  -0.34
  34  1 -13.54 -13.50 -13.02 -12.95 -12.92 -12.18 -11.64 -11.63 -11.30 -10.69
         -5.78  -5.65  -4.94  -4.86  -4.76  -4.75  -4.70  -4.69  -4.68  -4.40
         -4.38  -4.35  -4.33  -4.27  -4.23  -3.99  -3.86  -3.41  -3.38  -3.30
         -2.89  -2.35  -2.34  -2.31  -2.15  -1.91  -1.42  -1.41  -1.13  -0.34
  35  1 -13.54 -13.50 -13.02 -12.95 -12.92 -12.18 -11.64 -11.63 -11.30 -10.69
         -5.78  -5.65  -4.94  -4.86  -4.76  -4.75  -4.70  -4.69  -4.68  -4.40
         -4.38  -4.35  -4.33  -4.27  -4.23  -3.99  -3.86  -3.41  -3.38  -3.30
         -2.89  -2.35  -2.34  -2.31  -2.15  -1.91  -1.42  -1.41  -1.13  -0.34
  36  1 -13.54 -13.50 -13.02 -12.95 -12.92 -12.18 -11.64 -11.63 -11.30 -10.69
         -5.78  -5.65  -4.94  -4.86  -4.76  -4.75  -4.70  -4.69  -4.68  -4.40
         -4.38  -4.35  -4.33  -4.27  -4.23  -3.99  -3.86  -3.41  -3.38  -3.30
         -2.89  -2.35  -2.34  -2.31  -2.15  -1.91  -1.42  -1.41  -1.13  -0.34
  37  1 -13.54 -13.50 -13.02 -12.95 -12.92 -12.18 -11.64 -11.63 -11.30 -10.69
         -5.78  -5.65  -4.94  -4.86  -4.76  -4.75  -4.70  -4.69  -4.68  -4.40
         -4.38  -4.35  -4.33  -4.27  -4.23  -3.99  -3.86  -3.41  -3.38  -3.30
         -2.89  -2.35  -2.34  -2.31  -2.15  -1.91  -1.42  -1.41  -1.13  -0.34
  38  1 -13.54 -13.50 -13.02 -12.95 -12.92 -12.18 -11.64 -11.63 -11.30 -10.69
         -5.78  -5.65  -4.94  -4.86  -4.76  -4.75  -4.70  -4.69  -4.68  -4.40
         -4.38  -4.35  -4.33  -4.27  -4.23  -3.99  -3.86  -3.41  -3.38  -3.30
         -2.89  -2.35  -2.34  -2.31  -2.15  -1.91  -1.42  -1.41  -1.13  -0.34
  39  1 -13.54 -13.50 -13.02 -12.95 -12.92 -12.18 -11.64 -11.63 -11.30 -10.69
         -5.78  -5.65  -4.94  -4.86  -4.76  -4.75  -4.70  -4.69  -4.68  -4.40
         -4.38  -4.35  -4.33  -4.27  -4.23  -3.99  -3.86  -3.41  -3.38  -3.30
         -2.89  -2.35  -2.34  -2.31  -2.15  -1.91  -1.42  -1.41  -1.13  -0.34
  40  1 -13.54 -13.50 -13.02 -12.95 -12.92 -12.18 -11.64 -11.63 -11.30 -10.69
         -5.78  -5.65  -4.94  -4.86  -4.76  -4.75  -4.70  -4.69  -4.68  -4.40
         -4.38  -4.35  -4.33  -4.27  -4.23  -3.99  -3.86  -3.41  -3.38  -3.30
         -2.89  -2.35  -2.34  -2.31  -2.15  -1.91  -1.42  -1.41  -1.13  -0.34
  41  1 -13.54 -13.50 -13.02 -12.95 -12.92 -12.18 -11.64 -11.63 -11.30 -10.69
         -5.78  -5.65  -4.94  -4.86  -4.76  -4.75  -4.70  -4.69  -4.68  -4.40
         -4.38  -4.35  -4.33  -4.27  -4.23  -3.99  -3.86  -3.41  -3.38  -3.30
         -2.89  -2.35  -2.34  -2.31  -2.15  -1.91  -1.42  -1.41  -1.13  -0.34
  42  1 -13.54 -13.50 -13.02 -12.95 -12.92 -12.18 -11.64 -11.63 -11.30 -10.69
         -5.78  -5.65  -4.94  -4.86  -4.76  -4.75  -4.70  -4.69  -4.68  -4.40
         -4.38  -4.35  -4.33  -4.27  -4.23  -3.99  -3.86  -3.41  -3.38  -3.30
         -2.89  -2.35  -2.34  -2.31  -2.15  -1.91  -1.42  -1.41  -1.13  -0.34
  43  1 -13.54 -13.50 -13.02 -12.95 -12.92 -12.18 -11.64 -11.63 -11.30 -10.69
         -5.78  -5.65  -4.94  -4.86  -4.76  -4.75  -4.70  -4.69  -4.68  -4.40
         -4.38  -4.35  -4.33  -4.27  -4.23  -3.99  -3.86  -3.41  -3.38  -3.30
         -2.89  -2.35  -2.34  -2.31  -2.15  -1.91  -1.42  -1.41  -1.13  -0.34
  44  1 -13.54 -13.50 -13.02 -12.95 -12.92 -12.18 -11.64 -11.63 -11.30 -10.69
         -5.78  -5.65  -4.94  -4.86  -4.76  -4.75  -4.70  -4.69  -4.68  -4.40
         -4.38  -4.35  -4.33  -4.27  -4.23  -3.99  -3.86  -3.41  -3.38  -3.30
         -2.89  -2.35  -2.34  -2.31  -2.15  -1.91  -1.42  -1.41  -1.13  -0.34
  45  1 -13.54 -13.50 -13.02 -12.95 -12.92 -12.18 -11.64 -11.63 -11.30 -10.69
         -5.78  -5.65  -4.94  -4.86  -4.76  -4.75  -4.70  -4.69  -4.68  -4.40
         -4.38  -4.35  -4.33  -4.27  -4.23  -3.99  -3.86  -3.41  -3.38  -3.30
         -2.89  -2.35  -2.34  -2.31  -2.15  -1.91  -1.42  -1.41  -1.13  -0.34
  46  1 -13.54 -13.50 -13.02 -12.95 -12.92 -12.18 -11.64 -11.63 -11.30 -10.69
         -5.78  -5.65  -4.94  -4.86  -4.76  -4.75  -4.70  -4.69  -4.68  -4.40
         -4.38  -4.35  -4.33  -4.27  -4.23  -3.99  -3.86  -3.41  -3.38  -3.30
         -2.89  -2.35  -2.34  -2.31  -2.15  -1.91  -1.42  -1.41  -1.13  -0.34
  47  1 -13.54 -13.50 -13.02 -12.95 -12.92 -12.18 -11.64 -11.63 -11.30 -10.69
         -5.78  -5.65  -4.94  -4.86  -4.76  -4.75  -4.70  -4.69  -4.68  -4.40
         -4.38  -4.35  -4.33  -4.27  -4.23  -3.99  -3.86  -3.41  -3.38  -3.30
         -2.89  -2.35  -2.34  -2.31  -2.15  -1.91  -1.42  -1.41  -1.13  -0.34
  48  1 -13.54 -13.50 -13.02 -12.95 -12.92 -12.18 -11.64 -11.63 -11.30 -10.69
         -5.78  -5.65  -4.94  -4.86  -4.76  -4.75  -4.70  -4.69  -4.68  -4.40
         -4.38  -4.35  -4.33  -4.27  -4.23  -3.99  -3.86  -3.41  -3.38  -3.30
         -2.89  -2.35  -2.34  -2.31  -2.15  -1.91  -1.42  -1.41  -1.13  -0.34
  49  1 -13.54 -13.50 -13.02 -12.95 -12.92 -12.18 -11.64 -11.63 -11.30 -10.69
         -5.78  -5.65  -4.94  -4.86  -4.76  -4.75  -4.70  -4.69  -4.68  -4.40
         -4.38  -4.35  -4.33  -4.27  -4.23  -3.99  -3.86  -3.41  -3.38  -3.30
         -2.89  -2.35  -2.34  -2.31  -2.15  -1.91  -1.42  -1.41  -1.13  -0.34
  50  1 -13.54 -13.50 -13.02 -12.95 -12.92 -12.18 -11.64 -11.63 -11.30 -10.69
         -5.78  -5.65  -4.94  -4.86  -4.76  -4.75  -4.70  -4.69  -4.68  -4.40
         -4.38  -4.35  -4.33  -4.27  -4.23  -3.99  -3.86  -3.41  -3.38  -3.30
         -2.89  -2.35  -2.34  -2.31  -2.15  -1.91  -1.42  -1.41  -1.13  -0.34
  51  1 -13.54 -13.50 -13.02 -12.95 -12.92 -12.18 -11.64 -11.63 -11.30 -10.69
         -5.78  -5.65  -4.94  -4.86  -4.76  -4.75  -4.70  -4.69  -4.68  -4.40
         -4.38  -4.35  -4.33  -4.27  -4.23  -3.99  -3.86  -3.41  -3.38  -3.30
         -2.89  -2.35  -2.34  -2.31  -2.15  -1.91  -1.42  -1.41  -1.13  -0.34
  52  1 -13.54 -13.50 -13.02 -12.95 -12.92 -12.18 -11.64 -11.63 -11.30 -10.69
         -5.78  -5.65  -4.94  -4.86  -4.76  -4.75  -4.70  -4.69  -4.68  -4.40
         -4.38  -4.35  -4.33  -4.27  -4.23  -3.99  -3.86  -3.41  -3.38  -3.30
         -2.89  -2.35  -2.34  -2.31  -2.15  -1.91  -1.42  -1.41  -1.13  -0.34
  53  1 -13.54 -13.50 -13.02 -12.95 -12.92 -12.18 -11.64 -11.63 -11.30 -10.69
         -5.78  -5.65  -4.94  -4.86  -4.76  -4.75  -4.70  -4.69  -4.68  -4.40
         -4.38  -4.35  -4.33  -4.27  -4.23  -3.99  -3.86  -3.41  -3.38  -3.30
         -2.89  -2.35  -2.34  -2.31  -2.15  -1.91  -1.42  -1.41  -1.13  -0.34
  54  1 -13.54 -13.50 -13.02 -12.95 -12.92 -12.18 -11.64 -11.63 -11.30 -10.69
         -5.78  -5.65  -4.94  -4.86  -4.76  -4.75  -4.70  -4.69  -4.68  -4.40
         -4.38  -4.35  -4.33  -4.27  -4.23  -3.99  -3.86  -3.41  -3.38  -3.30
         -2.89  -2.35  -2.34  -2.31  -2.15  -1.91  -1.42  -1.41  -1.13  -0.34
  55  1 -13.54 -13.50 -13.02 -12.95 -12.92 -12.18 -11.64 -11.63 -11.30 -10.69
         -5.78  -5.65  -4.94  -4.86  -4.76  -4.75  -4.70  -4.69  -4.68  -4.40
         -4.38  -4.35  -4.33  -4.27  -4.23  -3.99  -3.86  -3.41  -3.38  -3.30
         -2.89  -2.35  -2.34  -2.31  -2.15  -1.91  -1.42  -1.41  -1.13  -0.34
  56  1 -13.54 -13.50 -13.02 -12.95 -12.92 -12.18 -11.64 -11.63 -11.30 -10.69
         -5.78  -5.65  -4.94  -4.86  -4.76  -4.75  -4.70  -4.69  -4.68  -4.40
         -4.38  -4.35  -4.33  -4.27  -4.23  -3.99  -3.86  -3.41  -3.38  -3.30
         -2.89  -2.35  -2.34  -2.31  -2.15  -1.91  -1.42  -1.41  -1.13  -0.34
  57  1 -13.54 -13.50 -13.02 -12.95 -12.92 -12.18 -11.64 -11.63 -11.30 -10.69
         -5.78  -5.65  -4.94  -4.86  -4.76  -4.75  -4.70  -4.69  -4.68  -4.40
         -4.38  -4.35  -4.33  -4.27  -4.23  -3.99  -3.86  -3.41  -3.38  -3.30
         -2.89  -2.35  -2.34  -2.31  -2.15  -1.91  -1.42  -1.41  -1.13  -0.34
  58  1 -13.54 -13.50 -13.02 -12.95 -12.92 -12.18 -11.64 -11.63 -11.30 -10.69
         -5.78  -5.65  -4.94  -4.86  -4.76  -4.75  -4.70  -4.69  -4.68  -4.40
         -4.38  -4.35  -4.33  -4.27  -4.23  -3.99  -3.86  -3.41  -3.38  -3.30
         -2.89  -2.35  -2.34  -2.31  -2.15  -1.91  -1.42  -1.41  -1.13  -0.34
  59  1 -13.54 -13.50 -13.02 -12.95 -12.92 -12.18 -11.64 -11.63 -11.30 -10.69
         -5.78  -5.65  -4.94  -4.86  -4.76  -4.75  -4.70  -4.69  -4.68  -4.40
         -4.38  -4.35  -4.33  -4.27  -4.23  -3.99  -3.86  -3.41  -3.38  -3.30
         -2.89  -2.35  -2.34  -2.31  -2.15  -1.91  -1.42  -1.41  -1.13  -0.34
  60  1 -13.54 -13.50 -13.02 -12.95 -12.92 -12.18 -11.64 -11.63 -11.30 -10.69
         -5.78  -5.65  -4.94  -4.86  -4.76  -4.75  -4.70  -4.69  -4.68  -4.40
         -4.38  -4.35  -4.33  -4.27  -4.23  -3.99  -3.86  -3.41  -3.38  -3.30
         -2.89  -2.35  -2.34  -2.31  -2.15  -1.91  -1.42  -1.41  -1.13  -0.34
  61  1 -13.54 -13.50 -13.02 -12.95 -12.92 -12.18 -11.64 -11.63 -11.30 -10.69
         -5.78  -5.65  -4.94  -4.86  -4.76  -4.75  -4.70  -4.69  -4.68  -4.40
         -4.38  -4.35  -4.33  -4.27  -4.23  -3.99  -3.86  -3.41  -3.38  -3.30
         -2.89  -2.35  -2.34  -2.31  -2.15  -1.91  -1.42  -1.41  -1.13  -0.34
  62  1 -13.54 -13.50 -13.02 -12.95 -12.92 -12.18 -11.64 -11.63 -11.30 -10.69
         -5.78  -5.65  -4.94  -4.86  -4.76  -4.75  -4.70  -4.69  -4.68  -4.40
         -4.38  -4.35  -4.33  -4.27  -4.23  -3.99  -3.86  -3.41  -3.38  -3.30
         -2.89  -2.35  -2.34  -2.31  -2.15  -1.91  -1.42  -1.41  -1.13  -0.34
  63  1 -13.54 -13.50 -13.02 -12.95 -12.92 -12.18 -11.64 -11.63 -11.30 -10.69
         -5.78  -5.65  -4.94  -4.86  -4.76  -4.75  -4.70  -4.69  -4.68  -4.40
         -4.38  -4.35  -4.33  -4.27  -4.23  -3.99  -3.86  -3.41  -3.38  -3.30
         -2.89  -2.35  -2.34  -2.31  -2.15  -1.91  -1.42  -1.41  -1.13  -0.34
  64  1 -13.54 -13.50 -13.02 -12.95 -12.92 -12.18 -11.64 -11.63 -11.30 -10.69
         -5.78  -5.65  -4.94  -4.86  -4.76  -4.75  -4.70  -4.69  -4.68  -4.40
         -4.38  -4.35  -4.33  -4.27  -4.23  -3.99  -3.86  -3.41  -3.38  -3.30
         -2.89  -2.35  -2.34  -2.31  -2.15  -1.91  -1.42  -1.41  -1.13  -0.34
  65  1 -13.54 -13.50 -13.02 -12.95 -12.92 -12.18 -11.64 -11.63 -11.30 -10.69
         -5.78  -5.65  -4.94  -4.86  -4.76  -4.75  -4.70  -4.69  -4.68  -4.40
         -4.38  -4.35  -4.33  -4.27  -4.23  -3.99  -3.86  -3.41  -3.38  -3.30
         -2.89  -2.35  -2.34  -2.31  -2.15  -1.91  -1.42  -1.41  -1.13  -0.34
  66  1 -13.54 -13.50 -13.02 -12.95 -12.92 -12.18 -11.64 -11.63 -11.30 -10.69
         -5.78  -5.65  -4.94  -4.86  -4.76  -4.75  -4.70  -4.69  -4.68  -4.40
         -4.38  -4.35  -4.33  -4.27  -4.23  -3.99  -3.86  -3.41  -3.38  -3.30
         -2.89  -2.35  -2.34  -2.31  -2.15  -1.91  -1.42  -1.41  -1.13  -0.34
  67  1 -13.54 -13.50 -13.02 -12.95 -12.92 -12.18 -11.64 -11.63 -11.30 -10.69
         -5.78  -5.65  -4.94  -4.86  -4.76  -4.75  -4.70  -4.69  -4.68  -4.40
         -4.38  -4.35  -4.33  -4.27  -4.23  -3.99  -3.86  -3.41  -3.38  -3.30
         -2.89  -2.35  -2.34  -2.31  -2.15  -1.91  -1.42  -1.41  -1.13  -0.34
  68  1 -13.54 -13.50 -13.02 -12.95 -12.92 -12.18 -11.64 -11.63 -11.30 -10.69
         -5.78  -5.65  -4.94  -4.86  -4.76  -4.75  -4.70  -4.69  -4.68  -4.40
         -4.38  -4.35  -4.33  -4.27  -4.23  -3.99  -3.86  -3.41  -3.38  -3.30
         -2.89  -2.35  -2.34  -2.31  -2.15  -1.91  -1.42  -1.41  -1.13  -0.34
  69  1 -13.54 -13.50 -13.02 -12.95 -12.92 -12.18 -11.64 -11.63 -11.30 -10.69
         -5.78  -5.65  -4.94  -4.86  -4.76  -4.75  -4.70  -4.69  -4.68  -4.40
         -4.38  -4.35  -4.33  -4.27  -4.23  -3.99  -3.86  -3.41  -3.38  -3.30
         -2.89  -2.35  -2.34  -2.31  -2.15  -1.91  -1.42  -1.41  -1.13  -0.34
  70  1 -13.54 -13.50 -13.02 -12.95 -12.92 -12.18 -11.64 -11.63 -11.30 -10.69
         -5.78  -5.65  -4.94  -4.86  -4.76  -4.75  -4.70  -4.69  -4.68  -4.40
         -4.38  -4.35  -4.33  -4.27  -4.23  -3.99  -3.86  -3.41  -3.38  -3.30
         -2.89  -2.35  -2.34  -2.31  -2.15  -1.91  -1.42  -1.41  -1.13  -0.34
  71  1 -13.54 -13.50 -13.02 -12.95 -12.92 -12.18 -11.64 -11.63 -11.30 -10.69
         -5.78  -5.65  -4.94  -4.86  -4.76  -4.75  -4.70  -4.69  -4.68  -4.40
         -4.38  -4.35  -4.33  -4.27  -4.23  -3.99  -3.86  -3.41  -3.38  -3.30
         -2.89  -2.35  -2.34  -2.31  -2.15  -1.91  -1.42  -1.41  -1.13  -0.34
  72  1 -13.54 -13.50 -13.02 -12.95 -12.92 -12.18 -11.64 -11.63 -11.30 -10.69
         -5.78  -5.65  -4.94  -4.86  -4.76  -4.75  -4.70  -4.69  -4.68  -4.40
         -4.38  -4.35  -4.33  -4.27  -4.23  -3.99  -3.86  -3.41  -3.38  -3.30
         -2.89  -2.35  -2.34  -2.31  -2.15  -1.91  -1.42  -1.41  -1.13  -0.34
  73  1 -13.54 -13.50 -13.02 -12.95 -12.92 -12.18 -11.64 -11.63 -11.30 -10.69
         -5.78  -5.65  -4.94  -4.86  -4.76  -4.75  -4.70  -4.69  -4.68  -4.40
         -4.38  -4.35  -4.33  -4.27  -4.23  -3.99  -3.86  -3.41  -3.38  -3.30
         -2.89  -2.35  -2.34  -2.31  -2.15  -1.91  -1.42  -1.41  -1.13  -0.34
  74  1 -13.54 -13.50 -13.02 -12.95 -12.92 -12.18 -11.64 -11.63 -11.30 -10.69
         -5.78  -5.65  -4.94  -4.86  -4.76  -4.75  -4.70  -4.69  -4.68  -4.40
         -4.38  -4.35  -4.33  -4.27  -4.23  -3.99  -3.86  -3.41  -3.38  -3.30
         -2.89  -2.35  -2.34  -2.31  -2.15  -1.91  -1.42  -1.41  -1.13  -0.34
  75  1 -13.54 -13.50 -13.02 -12.95 -12.92 -12.18 -11.64 -11.63 -11.30 -10.69
         -5.78  -5.65  -4.94  -4.86  -4.76  -4.75  -4.70  -4.69  -4.68  -4.40
         -4.38  -4.35  -4.33  -4.27  -4.23  -3.99  -3.86  -3.41  -3.38  -3.30
         -2.89  -2.35  -2.34  -2.31  -2.15  -1.91  -1.42  -1.41  -1.13  -0.34
  76  1 -13.54 -13.50 -13.02 -12.95 -12.92 -12.18 -11.64 -11.63 -11.30 -10.69
         -5.78  -5.65  -4.94  -4.86  -4.76  -4.75  -4.70  -4.69  -4.68  -4.40
         -4.38  -4.35  -4.33  -4.27  -4.23  -3.99  -3.86  -3.41  -3.38  -3.30
         -2.89  -2.35  -2.34  -2.31  -2.15  -1.91  -1.42  -1.41  -1.13  -0.34
  77  1 -13.54 -13.50 -13.02 -12.95 -12.92 -12.18 -11.64 -11.63 -11.30 -10.69
         -5.78  -5.65  -4.94  -4.86  -4.76  -4.75  -4.70  -4.69  -4.68  -4.40
         -4.38  -4.35  -4.33  -4.27  -4.23  -3.99  -3.86  -3.41  -3.38  -3.30
         -2.89  -2.35  -2.34  -2.31  -2.15  -1.91  -1.42  -1.41  -1.13  -0.34
  78  1 -13.54 -13.50 -13.02 -12.95 -12.92 -12.18 -11.64 -11.63 -11.30 -10.69
         -5.78  -5.65  -4.94  -4.86  -4.76  -4.75  -4.70  -4.69  -4.68  -4.40
         -4.38  -4.35  -4.33  -4.27  -4.23  -3.99  -3.86  -3.41  -3.38  -3.30
         -2.89  -2.35  -2.34  -2.31  -2.15  -1.91  -1.42  -1.41  -1.13  -0.34
  79  1 -13.54 -13.50 -13.02 -12.95 -12.92 -12.18 -11.64 -11.63 -11.30 -10.69
         -5.78  -5.65  -4.94  -4.86  -4.76  -4.75  -4.70  -4.69  -4.68  -4.40
         -4.38  -4.35  -4.33  -4.27  -4.23  -3.99  -3.86  -3.41  -3.38  -3.30
         -2.89  -2.35  -2.34  -2.31  -2.15  -1.91  -1.42  -1.41  -1.13  -0.34
  80  1 -13.54 -13.50 -13.02 -12.95 -12.92 -12.18 -11.64 -11.63 -11.30 -10.69
         -5.78  -5.65  -4.94  -4.86  -4.76  -4.75  -4.70  -4.69  -4.68  -4.40
         -4.38  -4.35  -4.33  -4.27  -4.23  -3.99  -3.86  -3.41  -3.38  -3.30
         -2.89  -2.35  -2.34  -2.31  -2.15  -1.91  -1.42  -1.41  -1.13  -0.34
  81  1 -13.54 -13.50 -13.02 -12.95 -12.92 -12.18 -11.64 -11.63 -11.30 -10.69
         -5.78  -5.65  -4.94  -4.86  -4.76  -4.75  -4.70  -4.69  -4.68  -4.40
         -4.38  -4.35  -4.33  -4.27  -4.23  -3.99  -3.86  -3.41  -3.38  -3.30
         -2.89  -2.35  -2.34  -2.31  -2.15  -1.91  -1.42  -1.41  -1.13  -0.34
  82  1 -13.54 -13.50 -13.02 -12.95 -12.92 -12.18 -11.64 -11.63 -11.30 -10.69
         -5.78  -5.65  -4.94  -4.86  -4.76  -4.75  -4.70  -4.69  -4.68  -4.40
         -4.38  -4.35  -4.33  -4.27  -4.23  -3.99  -3.86  -3.41  -3.38  -3.30
         -2.89  -2.35  -2.34  -2.31  -2.15  -1.91  -1.42  -1.41  -1.13  -0.34
  83  1 -13.54 -13.50 -13.02 -12.95 -12.92 -12.18 -11.64 -11.63 -11.30 -10.69
         -5.78  -5.65  -4.94  -4.86  -4.76  -4.75  -4.70  -4.69  -4.68  -4.40
         -4.38  -4.35  -4.33  -4.27  -4.23  -3.99  -3.86  -3.41  -3.38  -3.30
         -2.89  -2.35  -2.34  -2.31  -2.15  -1.91  -1.42  -1.41  -1.13  -0.34
  84  1 -13.54 -13.50 -13.02 -12.95 -12.92 -12.18 -11.64 -11.63 -11.30 -10.69
         -5.78  -5.65  -4.94  -4.86  -4.76  -4.75  -4.70  -4.69  -4.68  -4.40
         -4.38  -4.35  -4.33  -4.27  -4.23  -3.99  -3.86  -3.41  -3.38  -3.30
         -2.89  -2.35  -2.34  -2.31  -2.15  -1.91  -1.42  -1.41  -1.13  -0.34
  85  1 -13.54 -13.50 -13.02 -12.95 -12.92 -12.18 -11.64 -11.63 -11.30 -10.69
         -5.78  -5.65  -4.94  -4.86  -4.76  -4.75  -4.70  -4.69  -4.68  -4.40
         -4.38  -4.35  -4.33  -4.27  -4.23  -3.99  -3.86  -3.41  -3.38  -3.30
         -2.89  -2.35  -2.34  -2.31  -2.15  -1.91  -1.42  -1.41  -1.13  -0.34
  86  1 -13.54 -13.50 -13.02 -12.95 -12.92 -12.18 -11.64 -11.63 -11.30 -10.69
         -5.78  -5.65  -4.94  -4.86  -4.76  -4.75  -4.70  -4.69  -4.68  -4.40
         -4.38  -4.35  -4.33  -4.27  -4.23  -3.99  -3.86  -3.41  -3.38  -3.30
         -2.89  -2.35  -2.34  -2.31  -2.15  -1.91  -1.42  -1.41  -1.13  -0.34
  87  1 -13.54 -13.50 -13.02 -12.95 -12.92 -12.18 -11.64 -11.63 -11.30 -10.69
         -5.78  -5.65  -4.94  -4.86  -4.76  -4.75  -4.70  -4.69  -4.68  -4.40
         -4.38  -4.35  -4.33  -4.27  -4.23  -3.99  -3.86  -3.41  -3.38  -3.30
         -2.89  -2.35  -2.34  -2.31  -2.15  -1.91  -1.42  -1.41  -1.13  -0.34
  88  1 -13.54 -13.50 -13.02 -12.95 -12.92 -12.18 -11.64 -11.63 -11.30 -10.69
         -5.78  -5.65  -4.94  -4.86  -4.76  -4.75  -4.70  -4.69  -4.68  -4.40
         -4.38  -4.35  -4.33  -4.27  -4.23  -3.99  -3.86  -3.41  -3.38  -3.30
         -2.89  -2.35  -2.34  -2.31  -2.15  -1.91  -1.42  -1.41  -1.13  -0.34
  89  1 -13.54 -13.50 -13.02 -12.95 -12.92 -12.18 -11.64 -11.63 -11.30 -10.69
         -5.78  -5.65  -4.94  -4.86  -4.76  -4.75  -4.70  -4.69  -4.68  -4.40
         -4.38  -4.35  -4.33  -4.27  -4.23  -3.99  -3.86  -3.41  -3.38  -3.30
         -2.89  -2.35  -2.34  -2.31  -2.15  -1.91  -1.42  -1.41  -1.13  -0.34
  90  1 -13.54 -13.50 -13.02 -12.95 -12.92 -12.18 -11.64 -11.63 -11.30 -10.69
         -5.78  -5.65  -4.94  -4.86  -4.76  -4.75  -4.70  -4.69  -4.68  -4.40
         -4.38  -4.35  -4.33  -4.27  -4.23  -3.99  -3.86  -3.41  -3.38  -3.30
         -2.89  -2.35  -2.34  -2.31  -2.15  -1.91  -1.42  -1.41  -1.13  -0.34
  91  1 -13.54 -13.50 -13.02 -12.95 -12.92 -12.18 -11.64 -11.63 -11.30 -10.69
         -5.78  -5.65  -4.94  -4.86  -4.76  -4.75  -4.70  -4.69  -4.68  -4.40
         -4.38  -4.35  -4.33  -4.27  -4.23  -3.99  -3.86  -3.41  -3.38  -3.30
         -2.89  -2.35  -2.34  -2.31  -2.15  -1.91  -1.42  -1.41  -1.13  -0.34
  92  1 -13.54 -13.50 -13.02 -12.95 -12.92 -12.18 -11.64 -11.63 -11.30 -10.69
         -5.78  -5.65  -4.94  -4.86  -4.76  -4.75  -4.70  -4.69  -4.68  -4.40
         -4.38  -4.35  -4.33  -4.27  -4.23  -3.99  -3.86  -3.41  -3.38  -3.30
         -2.89  -2.35  -2.34  -2.31  -2.15  -1.91  -1.42  -1.41  -1.13  -0.34
  93  1 -13.54 -13.50 -13.02 -12.95 -12.92 -12.18 -11.64 -11.63 -11.30 -10.69
         -5.78  -5.65  -4.94  -4.86  -4.76  -4.75  -4.70  -4.69  -4.68  -4.40
         -4.38  -4.35  -4.33  -4.27  -4.23  -3.99  -3.86  -3.41  -3.38  -3.30
         -2.89  -2.35  -2.34  -2.31  -2.15  -1.91  -1.42  -1.41  -1.13  -0.34
  94  1 -13.54 -13.50 -13.02 -12.95 -12.92 -12.18 -11.64 -11.63 -11.30 -10.69
         -5.78  -5.65  -4.94  -4.86  -4.76  -4.75  -4.70  -4.69  -4.68  -4.40
         -4.38  -4.35  -4.33  -4.27  -4.23  -3.99  -3.86  -3.41  -3.38  -3.30
         -2.89  -2.35  -2.34  -2.31  -2.15  -1.91  -1.42  -1.41  -1.13  -0.34
  95  1 -13.54 -13.50 -13.02 -12.95 -12.92 -12.18 -11.64 -11.63 -11.30 -10.69
         -5.78  -5.65  -4.94  -4.86  -4.76  -4.75  -4.70  -4.69  -4.68  -4.40
         -4.38  -4.35  -4.33  -4.27  -4.23  -3.99  -3.86  -3.41  -3.38  -3.30
         -2.89  -2.35  -2.34  -2.31  -2.15  -1.91  -1.42  -1.41  -1.13  -0.34
  96  1 -13.54 -13.50 -13.02 -12.95 -12.92 -12.18 -11.64 -11.63 -11.30 -10.69
         -5.78  -5.65  -4.94  -4.86  -4.76  -4.75  -4.70  -4.69  -4.68  -4.40
         -4.38  -4.35  -4.33  -4.27  -4.23  -3.99  -3.86  -3.41  -3.38  -3.30
         -2.89  -2.35  -2.34  -2.31  -2.15  -1.91  -1.42  -1.41  -1.13  -0.34
[...]
         -4.38  -4.35  -4.33  -4.27  -4.23  -3.99  -3.86  -3.41  -3.38  -3.30
         -2.89  -2.35  -2.34  -2.31  -2.15  -1.91  -1.42  -1.41  -1.13  -0.34
 261  1 -13.54 -13.50 -13.02 -12.95 -12.92 -12.18 -11.64 -11.63 -11.30 -10.69
         -5.78  -5.65  -4.94  -4.86  -4.76  -4.75  -4.70  -4.69  -4.68  -4.40
         -4.38  -4.35  -4.33  -4.27  -4.23  -3.99  -3.86  -3.41  -3.38  -3.30
         -2.89  -2.35  -2.34  -2.31  -2.15  -1.91  -1.42  -1.41  -1.13  -0.34
 262  1 -13.54 -13.50 -13.02 -12.95 -12.92 -12.18 -11.64 -11.63 -11.30 -10.69
         -5.78  -5.65  -4.94  -4.86  -4.76  -4.75  -4.70  -4.69  -4.68  -4.40
         -4.38  -4.35  -4.33  -4.27  -4.23  -3.99  -3.86  -3.41  -3.38  -3.30
         -2.89  -2.35  -2.34  -2.31  -2.15  -1.91  -1.42  -1.41  -1.13  -0.34
 263  1 -13.54 -13.50 -13.02 -12.95 -12.92 -12.18 -11.64 -11.63 -11.30 -10.69
         -5.78  -5.65  -4.94  -4.86  -4.76  -4.75  -4.70  -4.69  -4.68  -4.40
         -4.38  -4.35  -4.33  -4.27  -4.23  -3.99  -3.86  -3.41  -3.38  -3.30
         -2.89  -2.35  -2.34  -2.31  -2.15  -1.91  -1.42  -1.41  -1.13  -0.34
 264  1 -13.54 -13.50 -13.02 -12.95 -12.92 -12.18 -11.64 -11.63 -11.30 -10.69
         -5.78  -5.65  -4.94  -4.86  -4.76  -4.75  -4.70  -4.69  -4.68  -4.40
         -4.38  -4.35  -4.33  -4.27  -4.23  -3.99  -3.86  -3.41  -3.38  -3.30
         -2.89  -2.35  -2.34  -2.31  -2.15  -1.91  -1.42  -1.41  -1.13  -0.34
 265  1 -13.54 -13.50 -13.02 -12.95 -12.92 -12.18 -11.64 -11.63 -11.30 -10.69
         -5.78  -5.65  -4.94  -4.86  -4.76  -4.75  -4.70  -4.69  -4.68  -4.40
         -4.38  -4.35  -4.33  -4.27  -4.23  -3.99  -3.86  -3.41  -3.38  -3.30
         -2.89  -2.35  -2.34  -2.31  -2.15  -1.91  -1.42  -1.41  -1.13  -0.34
 266  1 -13.54 -13.50 -13.02 -12.95 -12.92 -12.18 -11.64 -11.63 -11.30 -10.69
         -5.78  -5.65  -4.94  -4.86  -4.76  -4.75  -4.70  -4.69  -4.68  -4.40
         -4.38  -4.35  -4.33  -4.27  -4.23  -3.99  -3.86  -3.41  -3.38  -3.30
         -2.89  -2.35  -2.34  -2.31  -2.15  -1.91  -1.42  -1.41  -1.13  -0.34
 267  1 -13.54 -13.50 -13.02 -12.95 -12.92 -12.18 -11.64 -11.63 -11.30 -10.69
         -5.78  -5.65  -4.94  -4.86  -4.76  -4.75  -4.70  -4.69  -4.68  -4.40
         -4.38  -4.35  -4.33  -4.27  -4.23  -3.99  -3.86  -3.41  -3.38  -3.30
         -2.89  -2.35  -2.34  -2.31  -2.15  -1.91  -1.42  -1.41  -1.13  -0.34
 268  1 -13.54 -13.50 -13.02 -12.95 -12.92 -12.18 -11.64 -11.63 -11.30 -10.69
         -5.78  -5.65  -4.94  -4.86  -4.76  -4.75  -4.70  -4.69  -4.68  -4.40
         -4.38  -4.35  -4.33  -4.27  -4.23  -3.99  -3.86  -3.41  -3.38  -3.30
         -2.89  -2.35  -2.34  -2.31  -2.15  -1.91  -1.42  -1.41  -1.13  -0.34
 269  1 -13.54 -13.50 -13.02 -12.95 -12.92 -12.18 -11.64 -11.63 -11.30 -10.69
         -5.78  -5.65  -4.94  -4.86  -4.76  -4.75  -4.70  -4.69  -4.68  -4.40
         -4.38  -4.35  -4.33  -4.27  -4.23  -3.99  -3.86  -3.41  -3.38  -3.30
         -2.89  -2.35  -2.34  -2.31  -2.15  -1.91  -1.42  -1.41  -1.13  -0.34
 270  1 -13.54 -13.50 -13.02 -12.95 -12.92 -12.18 -11.64 -11.63 -11.30 -10.69
         -5.78  -5.65  -4.94  -4.86  -4.76  -4.75  -4.70  -4.69  -4.68  -4.40
         -4.38  -4.35  -4.33  -4.27  -4.23  -3.99  -3.86  -3.41  -3.38  -3.30
         -2.89  -2.35  -2.34  -2.31  -2.15  -1.91  -1.42  -1.41  -1.13  -0.34
 271  1 -13.54 -13.50 -13.02 -12.95 -12.92 -12.18 -11.64 -11.63 -11.30 -10.69
         -5.78  -5.65  -4.94  -4.86  -4.76  -4.75  -4.70  -4.69  -4.68  -4.40
         -4.38  -4.35  -4.33  -4.27  -4.23  -3.99  -3.86  -3.41  -3.38  -3.30
         -2.89  -2.35  -2.34  -2.31  -2.15  -1.91  -1.42  -1.41  -1.13  -0.34
 272  1 -13.54 -13.50 -13.02 -12.95 -12.92 -12.18 -11.64 -11.63 -11.30 -10.69
         -5.78  -5.65  -4.94  -4.86  -4.76  -4.75  -4.70  -4.69  -4.68  -4.40
         -4.38  -4.35  -4.33  -4.27  -4.23  -3.99  -3.86  -3.41  -3.38  -3.30
         -2.89  -2.35  -2.34  -2.31  -2.15  -1.91  -1.42  -1.41  -1.13  -0.34
 273  1 -13.54 -13.50 -13.02 -12.95 -12.92 -12.18 -11.64 -11.63 -11.30 -10.69
         -5.78  -5.65  -4.94  -4.86  -4.76  -4.75  -4.70  -4.69  -4.68  -4.40
         -4.38  -4.35  -4.33  -4.27  -4.23  -3.99  -3.86  -3.41  -3.38  -3.30
         -2.89  -2.35  -2.34  -2.31  -2.15  -1.91  -1.42  -1.41  -1.13  -0.34
 274  1 -13.54 -13.50 -13.02 -12.95 -12.92 -12.18 -11.64 -11.63 -11.30 -10.69
         -5.78  -5.65  -4.94  -4.86  -4.76  -4.75  -4.70  -4.69  -4.68  -4.40
         -4.38  -4.35  -4.33  -4.27  -4.23  -3.99  -3.86  -3.41  -3.38  -3.30
         -2.89  -2.35  -2.34  -2.31  -2.15  -1.91  -1.42  -1.41  -1.13  -0.34
 275  1 -13.54 -13.50 -13.02 -12.95 -12.92 -12.18 -11.64 -11.63 -11.30 -10.69
         -5.78  -5.65  -4.94  -4.86  -4.76  -4.75  -4.70  -4.69  -4.68  -4.40
         -4.38  -4.35  -4.33  -4.27  -4.23  -3.99  -3.86  -3.41  -3.38  -3.30
         -2.89  -2.35  -2.34  -2.31  -2.15  -1.91  -1.42  -1.41  -1.13  -0.34
 276  1 -13.54 -13.50 -13.02 -12.95 -12.92 -12.18 -11.64 -11.63 -11.30 -10.69
         -5.78  -5.65  -4.94  -4.86  -4.76  -4.75  -4.70  -4.69  -4.68  -4.40
         -4.38  -4.35  -4.33  -4.27  -4.23  -3.99  -3.86  -3.41  -3.38  -3.30
         -2.89  -2.35  -2.34  -2.31  -2.15  -1.91  -1.42  -1.41  -1.13  -0.34
 277  1 -13.54 -13.50 -13.02 -12.95 -12.92 -12.18 -11.64 -11.63 -11.30 -10.69
         -5.78  -5.65  -4.94  -4.86  -4.76  -4.75  -4.70  -4.69  -4.68  -4.40
         -4.38  -4.35  -4.33  -4.27  -4.23  -3.99  -3.86  -3.41  -3.38  -3.30
         -2.89  -2.35  -2.34  -2.31  -2.15  -1.91  -1.42  -1.41  -1.13  -0.34
 278  1 -13.54 -13.50 -13.02 -12.95 -12.92 -12.18 -11.64 -11.63 -11.30 -10.69
         -5.78  -5.65  -4.94  -4.86  -4.76  -4.75  -4.70  -4.69  -4.68  -4.40
         -4.38  -4.35  -4.33  -4.27  -4.23  -3.99  -3.86  -3.41  -3.38  -3.30
         -2.89  -2.35  -2.34  -2.31  -2.15  -1.91  -1.42  -1.41  -1.13  -0.34
 279  1 -13.54 -13.50 -13.02 -12.95 -12.92 -12.18 -11.64 -11.63 -11.30 -10.69
         -5.78  -5.65  -4.94  -4.86  -4.76  -4.75  -4.70  -4.69  -4.68  -4.40
         -4.38  -4.35  -4.33  -4.27  -4.23  -3.99  -3.86  -3.41  -3.38  -3.30
         -2.89  -2.35  -2.34  -2.31  -2.15  -1.91  -1.42  -1.41  -1.13  -0.34
 280  1 -13.54 -13.50 -13.02 -12.95 -12.92 -12.18 -11.64 -11.63 -11.30 -10.69
         -5.78  -5.65  -4.94  -4.86  -4.76  -4.75  -4.70  -4.69  -4.68  -4.40
         -4.38  -4.35  -4.33  -4.27  -4.23  -3.99  -3.86  -3.41  -3.38  -3.30
         -2.89  -2.35  -2.34  -2.31  -2.15  -1.91  -1.42  -1.41  -1.13  -0.34
 281  1 -13.54 -13.50 -13.02 -12.95 -12.92 -12.18 -11.64 -11.63 -11.30 -10.69
         -5.78  -5.65  -4.94  -4.86  -4.76  -4.75  -4.70  -4.69  -4.68  -4.40
         -4.38  -4.35  -4.33  -4.27  -4.23  -3.99  -3.86  -3.41  -3.38  -3.30
         -2.89  -2.35  -2.34  -2.31  -2.15  -1.91  -1.42  -1.41  -1.13  -0.34
 282  1 -13.54 -13.50 -13.02 -12.95 -12.92 -12.18 -11.64 -11.63 -11.30 -10.69
         -5.78  -5.65  -4.94  -4.86  -4.76  -4.75  -4.70  -4.69  -4.68  -4.40
         -4.38  -4.35  -4.33  -4.27  -4.23  -3.99  -3.86  -3.41  -3.38  -3.30
         -2.89  -2.35  -2.34  -2.31  -2.15  -1.91  -1.42  -1.41  -1.13  -0.34
 283  1 -13.54 -13.50 -13.02 -12.95 -12.92 -12.18 -11.64 -11.63 -11.30 -10.69
         -5.78  -5.65  -4.94  -4.86  -4.76  -4.75  -4.70  -4.69  -4.68  -4.40
         -4.38  -4.35  -4.33  -4.27  -4.23  -3.99  -3.86  -3.41  -3.38  -3.30
         -2.89  -2.35  -2.34  -2.31  -2.15  -1.91  -1.42  -1.41  -1.13  -0.34
 284  1 -13.54 -13.50 -13.02 -12.95 -12.92 -12.18 -11.64 -11.63 -11.30 -10.69
         -5.78  -5.65  -4.94  -4.86  -4.76  -4.75  -4.70  -4.69  -4.68  -4.40
         -4.38  -4.35  -4.33  -4.27  -4.23  -3.99  -3.86  -3.41  -3.38  -3.30
         -2.89  -2.35  -2.34  -2.31  -2.15  -1.91  -1.42  -1.41  -1.13  -0.34
 285  1 -13.54 -13.50 -13.02 -12.95 -12.92 -12.18 -11.64 -11.63 -11.30 -10.69
         -5.78  -5.65  -4.94  -4.86  -4.76  -4.75  -4.70  -4.69  -4.68  -4.40
         -4.38  -4.35  -4.33  -4.27  -4.23  -3.99  -3.86  -3.41  -3.38  -3.30
         -2.89  -2.35  -2.34  -2.31  -2.15  -1.91  -1.42  -1.41  -1.13  -0.34
 286  1 -13.54 -13.50 -13.02 -12.95 -12.92 -12.18 -11.64 -11.63 -11.30 -10.69
         -5.78  -5.65  -4.94  -4.86  -4.76  -4.75  -4.70  -4.69  -4.68  -4.40
         -4.38  -4.35  -4.33  -4.27  -4.23  -3.99  -3.86  -3.41  -3.38  -3.30
         -2.89  -2.35  -2.34  -2.31  -2.15  -1.91  -1.42  -1.41  -1.13  -0.34
 287  1 -13.54 -13.50 -13.02 -12.95 -12.92 -12.18 -11.64 -11.63 -11.30 -10.69
         -5.78  -5.65  -4.94  -4.86  -4.76  -4.75  -4.70  -4.69  -4.68  -4.40
         -4.38  -4.35  -4.33  -4.27  -4.23  -3.99  -3.86  -3.41  -3.38  -3.30
         -2.89  -2.35  -2.34  -2.31  -2.15  -1.91  -1.42  -1.41  -1.13  -0.34
 288  1 -13.54 -13.50 -13.02 -12.95 -12.92 -12.18 -11.64 -11.63 -11.30 -10.69
         -5.78  -5.65  -4.94  -4.86  -4.76  -4.75  -4.70  -4.69  -4.68  -4.40
         -4.38  -4.35  -4.33  -4.27  -4.23  -3.99  -3.86  -3.41  -3.38  -3.30
         -2.89  -2.35  -2.34  -2.31  -2.15  -1.91  -1.42  -1.41  -1.13  -0.34
 289  1 -13.54 -13.50 -13.02 -12.95 -12.92 -12.18 -11.64 -11.63 -11.30 -10.69
         -5.78  -5.65  -4.94  -4.86  -4.76  -4.75  -4.70  -4.69  -4.68  -4.40
         -4.38  -4.35  -4.33  -4.27  -4.23  -3.99  -3.86  -3.41  -3.38  -3.30
         -2.89  -2.35  -2.34  -2.31  -2.15  -1.91  -1.42  -1.41  -1.13  -0.34
 290  1 -13.54 -13.50 -13.02 -12.95 -12.92 -12.18 -11.64 -11.63 -11.30 -10.69
         -5.78  -5.65  -4.94  -4.86  -4.76  -4.75  -4.70  -4.69  -4.68  -4.40
         -4.38  -4.35  -4.33  -4.27  -4.23  -3.99  -3.86  -3.41  -3.38  -3.30
         -2.89  -2.35  -2.34  -2.31  -2.15  -1.91  -1.42  -1.41  -1.13  -0.34
 291  1 -13.54 -13.50 -13.02 -12.95 -12.92 -12.18 -11.64 -11.63 -11.30 -10.69
         -5.78  -5.65  -4.94  -4.86  -4.76  -4.75  -4.70  -4.69  -4.68  -4.40
         -4.38  -4.35  -4.33  -4.27  -4.23  -3.99  -3.86  -3.41  -3.38  -3.30
         -2.89  -2.35  -2.34  -2.31  -2.15  -1.91  -1.42  -1.41  -1.13  -0.34
 292  1 -13.54 -13.50 -13.02 -12.95 -12.92 -12.18 -11.64 -11.63 -11.30 -10.69
         -5.78  -5.65  -4.94  -4.86  -4.76  -4.75  -4.70  -4.69  -4.68  -4.40
         -4.38  -4.35  -4.33  -4.27  -4.23  -3.99  -3.86  -3.41  -3.38  -3.30
         -2.89  -2.35  -2.34  -2.31  -2.15  -1.91  -1.42  -1.41  -1.13  -0.34
 293  1 -13.54 -13.50 -13.02 -12.95 -12.92 -12.18 -11.64 -11.63 -11.30 -10.69
         -5.78  -5.65  -4.94  -4.86  -4.76  -4.75  -4.70  -4.69  -4.68  -4.40
         -4.38  -4.35  -4.33  -4.27  -4.23  -3.99  -3.86  -3.41  -3.38  -3.30
         -2.89  -2.35  -2.34  -2.31  -2.15  -1.91  -1.42  -1.41  -1.13  -0.34
 294  1 -13.54 -13.50 -13.02 -12.95 -12.92 -12.18 -11.64 -11.63 -11.30 -10.69
         -5.78  -5.65  -4.94  -4.86  -4.76  -4.75  -4.70  -4.69  -4.68  -4.40
         -4.38  -4.35  -4.33  -4.27  -4.23  -3.99  -3.86  -3.41  -3.38  -3.30
         -2.89  -2.35  -2.34  -2.31  -2.15  -1.91  -1.42  -1.41  -1.13  -0.34
 295  1 -13.54 -13.50 -13.02 -12.95 -12.92 -12.18 -11.64 -11.63 -11.30 -10.69
         -5.78  -5.65  -4.94  -4.86  -4.76  -4.75  -4.70  -4.69  -4.68  -4.40
         -4.38  -4.35  -4.33  -4.27  -4.23  -3.99  -3.86  -3.41  -3.38  -3.30
         -2.89  -2.35  -2.34  -2.31  -2.15  -1.91  -1.42  -1.41  -1.13  -0.34
 296  1 -13.54 -13.50 -13.02 -12.95 -12.92 -12.18 -11.64 -11.63 -11.30 -10.69
         -5.78  -5.65  -4.94  -4.86  -4.76  -4.75  -4.70  -4.69  -4.68  -4.40
         -4.38  -4.35  -4.33  -4.27  -4.23  -3.99  -3.86  -3.41  -3.38  -3.30
         -2.89  -2.35  -2.34  -2.31  -2.15  -1.91  -1.42  -1.41  -1.13  -0.34
 297  1 -13.54 -13.50 -13.02 -12.95 -12.92 -12.18 -11.64 -11.63 -11.30 -10.69
         -5.78  -5.65  -4.94  -4.86  -4.76  -4.75  -4.70  -4.69  -4.68  -4.40
         -4.38  -4.35  -4.33  -4.27  -4.23  -3.99  -3.86  -3.41  -3.38  -3.30
         -2.89  -2.35  -2.34  -2.31  -2.15  -1.91  -1.42  -1.41  -1.13  -0.34
 298  1 -13.54 -13.50 -13.02 -12.95 -12.92 -12.18 -11.64 -11.63 -11.30 -10.69
         -5.78  -5.65  -4.94  -4.86  -4.76  -4.75  -4.70  -4.69  -4.68  -4.40
         -4.38  -4.35  -4.33  -4.27  -4.23  -3.99  -3.86  -3.41  -3.38  -3.30
         -2.89  -2.35  -2.34  -2.31  -2.15  -1.91  -1.42  -1.41  -1.13  -0.34
 299  1 -13.54 -13.50 -13.02 -12.95 -12.92 -12.18 -11.64 -11.63 -11.30 -10.69
         -5.78  -5.65  -4.94  -4.86  -4.76  -4.75  -4.70  -4.69  -4.68  -4.40
         -4.38  -4.35  -4.33  -4.27  -4.23  -3.99  -3.86  -3.41  -3.38  -3.30
         -2.89  -2.35  -2.34  -2.31  -2.15  -1.91  -1.42  -1.41  -1.13  -0.34
 300  1 -13.54 -13.50 -13.02 -12.95 -12.92 -12.18 -11.64 -11.63 -11.30 -10.69
         -5.78  -5.65  -4.94  -4.86  -4.76  -4.75  -4.70  -4.69  -4.68  -4.40
         -4.38  -4.35  -4.33  -4.27  -4.23  -3.99  -3.86  -3.41  -3.38  -3.30
         -2.89  -2.35  -2.34  -2.31  -2.15  -1.91  -1.42  -1.41  -1.13  -0.34
 301  1 -13.54 -13.50 -13.02 -12.95 -12.92 -12.18 -11.64 -11.63 -11.30 -10.69
         -5.78  -5.65  -4.94  -4.86  -4.76  -4.75  -4.70  -4.69  -4.68  -4.40
         -4.38  -4.35  -4.33  -4.27  -4.23  -3.99  -3.86  -3.41  -3.38  -3.30
         -2.89  -2.35  -2.34  -2.31  -2.15  -1.91  -1.42  -1.41  -1.13  -0.34

siesta: Program's energy decomposition (eV):
siesta: Ebs     =      -345.097849
siesta: Eions   =      3161.344813
siesta: Ena     =      1089.680083
siesta: Ekin    =       888.111449
siesta: Enl     =        79.272943
siesta: DEna    =        36.364938
siesta: DUscf   =         2.147535
siesta: DUext   =         0.000000
siesta: Exc     =      -414.240716
siesta: eta*DQ  =         0.000000
siesta: Emadel  =         0.000000
siesta: Emeta   =         0.000000
siesta: Emolmec =         0.000000
siesta: Ekinion =         0.000000
siesta: Eharris =     -1481.088256
siesta: Etot    =     -1480.008581
siesta: FreeEng =     -1480.111517

siesta: Final energy (eV):
siesta:  Band Struct. =    -345.097849
siesta:       Kinetic =     888.111449
siesta:       Hartree =    2047.424235
siesta:    Ext. field =       0.000000
siesta:   Exch.-corr. =    -414.240716
siesta:  Ion-electron =   -4804.566216
siesta:       Ion-ion =     803.262666
siesta:       Ekinion =       0.000000
siesta:         Total =   -1480.008581

siesta: Atomic forces (eV/Ang):
siesta:      1    0.000000    2.988019   -0.204180
siesta:      2    0.000001    1.540160    2.644134
siesta:      3   -0.000000   -1.719887    2.425195
siesta:      4   -0.000000    1.206720   -2.467105
siesta:      5    0.000000   -1.372010   -2.220291
siesta:      6   -0.000000   -2.691343   -0.204013
siesta:      7   -0.000000    1.630948    3.039974
siesta:      8    0.000000    2.913046   -0.097960
siesta:      9   -0.000000   -1.588609   -2.142738
siesta:     10   -0.000000   -2.906913   -0.781463
siesta: ----------------------------------------
siesta:    Tot    0.000000    0.000130   -0.008447

siesta: Stress tensor (static) (eV/Ang**3):
siesta:    -0.000005   -0.000000   -0.000000
siesta:    -0.000000    0.008983    0.000211
siesta:    -0.000000    0.000210    0.008872

siesta: Cell volume =       3622.561824 Ang**3

siesta: Pressure (static):
siesta:                Solid            Molecule  Units
siesta:          -0.00006480         -0.00000162  Ry/Bohr**3
siesta:          -0.00594971         -0.00014858  eV/Ang**3
siesta:          -9.53259507         -0.23805243  kBar
(Free)E+ p_basis*V_orbitals  =       -1478.686934
(Free)Eharris+ p_basis*V_orbitals  =       -1479.768007

siesta: Electric dipole (a.u.)  =   -0.000000    0.245462    1.102571
siesta: Electric dipole (Debye) =   -0.000000    0.623903    2.802457

* Maximum dynamic memory allocated : Node    0 =    59 MB

* Maximum memory occured during redistribXZ                   

timer: CPU execution times:
timer:  Routine       Calls   Time/call    Tot.time        %
timer:  siesta            1     311.241     311.241   100.00
timer:  Setup             1       0.072       0.072     0.02
timer:  bands             3       0.025       0.075     0.02
timer:  writewave         1       0.000       0.000     0.00
timer:  KSV_init          1       0.000       0.000     0.00
timer:  IterMD            1     311.066     311.066    99.94
timer:  hsparse           1       0.000       0.000     0.00
timer:  overlap           1       0.005       0.005     0.00
timer:  IterSCF         499       0.622     310.461    99.75
timer:  kinefsm           2       0.002       0.005     0.00
timer:  nlefsm            2       0.011       0.022     0.01
timer:  DHSCF           500       0.487     243.652    78.28
timer:  DHSCF1            1       0.026       0.026     0.01
timer:  DHSCF2            1       0.274       0.274     0.09
timer:  REORD          4002       0.001       4.751     1.53
timer:  POISON          501       0.174      87.307    28.05
timer:  DHSCF3          500       0.483     241.676    77.65
timer:  rhoofd          500       0.011       5.576     1.79
timer:  cellXC          500       0.253     126.671    40.70
timer:  vmat            500       0.007       3.479     1.12
timer:  MolMec            2       0.000       0.000     0.00
timer:  diagon          499       0.133      66.512    21.37
timer:  c-eigval      75151       0.000      15.877     5.10
timer:  c-buildHS     75151       0.000       0.970     0.31
timer:  cdiag        150001       0.000      44.492    14.30
timer:  cdiag1       150001       0.000       2.758     0.89
timer:  cdiag2       150001       0.000       8.571     2.75
timer:  cdiag3       150001       0.000      31.827    10.23
timer:  cdiag4       150001       0.000       0.661     0.21
timer:  c-eigvec      74850       0.000      30.485     9.79
timer:  c-buildD      74850       0.000      17.223     5.53
timer:  DHSCF4            1       0.106       0.106     0.03
timer:  dfscf             1       0.083       0.083     0.03
timer:  overfsm           1       0.000       0.000     0.00
timer:  optical           1       0.000       0.000     0.00
  

elaps: ELAPSED times:
elaps:  Routine       Calls   Time/call    Tot.time        %
elaps:  siesta            1     311.729     311.729   100.00
elaps:  Setup             1       0.072       0.072     0.02
elaps:  bands             3       0.025       0.075     0.02
elaps:  writewave         1       0.001       0.001     0.00
elaps:  KSV_init          1       0.000       0.000     0.00
elaps:  IterMD            1     311.555     311.555    99.94
elaps:  hsparse           1       0.000       0.000     0.00
elaps:  overlap           1       0.006       0.006     0.00
elaps:  IterSCF         499       0.623     310.947    99.75
elaps:  kinefsm           2       0.002       0.005     0.00
elaps:  nlefsm            2       0.011       0.022     0.01
elaps:  DHSCF           500       0.488     244.059    78.29
elaps:  DHSCF1            1       0.028       0.028     0.01
elaps:  DHSCF2            1       0.275       0.275     0.09
elaps:  REORD          4002       0.001       4.900     1.57
elaps:  POISON          501       0.175      87.509    28.07
elaps:  DHSCF3          500       0.485     242.301    77.73
elaps:  rhoofd          500       0.012       5.833     1.87
elaps:  cellXC          500       0.254     126.852    40.69
elaps:  vmat            500       0.007       3.476     1.12
elaps:  MolMec            2       0.000       0.000     0.00
elaps:  diagon          499       0.134      66.913    21.47
elaps:  c-eigval      75151       0.000      16.194     5.19
elaps:  c-buildHS     75151       0.000       2.366     0.76
elaps:  cdiag        150001       0.000      43.340    13.90
elaps:  cdiag1       150001       0.000       3.887     1.25
elaps:  cdiag2       150001       0.000       7.210     2.31
elaps:  cdiag3       150001       0.000      29.027     9.31
elaps:  cdiag4       150001       0.000       2.275     0.73
elaps:  c-eigvec      74850       0.000      31.955    10.25
elaps:  c-buildD      74850       0.000      15.458     4.96
elaps:  DHSCF4            1       0.106       0.106     0.03
elaps:  dfscf             1       0.083       0.083     0.03
elaps:  overfsm           1       0.001       0.001     0.00
elaps:  optical           1       0.000       0.000     0.00
  
>> End of run:  21-SEP-2015  11:03:51
