
#FDF: Opened INPUT_TMP.00929      for input. Unit: 12

fdf-debug              0     # Default value
SystemName     graphene                                                                                                                            
SystemLabel     graphene                                                                                                                            
XML.Write              T     # Default value
Write.XML              T     # Default value
XML.AbortOnErrors              F     # Default value
XML.AbortOnWarnings              F     # Default value
alloc_report_level              0     # Default value
xc.functional     GGA                                                                                                                                 
xc.authors     PBE                                                                                                                                 
MM.Cutoff          30.00000000     Bohr     # Default value
MM.UnitsEnergy     eV     # Default value
MM.UnitsDistance     Ang     # Default value
WriteIonPlotFiles              F     # Default value
Atom.Debug.KB.Generation              F     # Default value
user-basis              F     # Default value
user-basis-netcdf              F     # Default value
ReparametrizePseudos              F     # Default value
Restricted.Radial.Grid              T     # Default value
Rmax.Radial.Grid          0.000000000         # Default value
PAO.BasisSize     standard            # Default value
PAO.BasisType     split          # Default value
PAO.SoftDefault              F     # Default value
PAO.SoftInnerRadius         0.9000000000         # Default value
PAO.SoftPotential          40.00000000         # Default value
PAO.SplitNorm         0.1500000000         # Default value
PAO.SplitNormH         -1.000000000         # Default value
Number_of_species                        1

%block ChemicalSpeciesLabel                                                    
  1   6  C                                                                     
%endblock ChemicalSpeciesLabel                                                 


%block PAO.Basis                 # Define Basis set                            
C           2                    # Species label, number of l-shells           
 n=2   0   1                         # n, l, Nzeta                             
   4.088                                                                       
   1.000                                                                       
 n=2   1   1                       # n, l, Nzeta, Polarization, NzetaPol       
   4.870                                                                       
   1.000                                                                       
%endblock PAO.Basis                                                            

FilterCutoff          0.000000000     Ry     # Default value
FilterTol          0.000000000     Ry     # Default value
KB.Rmax          6.000000000     Bohr     # Default value
PAO.EnergyShift         0.2000000000E-01 Ry     # Default value
PAO.SplitTailNorm              F     # Default value
PAO.FixSplitTable              F     # Default value
PAO.NewSplitCode              F     # Default value
PAO.Filter              F     # Default value
PAO.Filter              F     # Default value
PAO.OldStylePolorbs              T     # Default value
PAO.SplitTailNorm              F     # Default value
PAO.FixSplitTable              F     # Default value
PAO.NewSplitCode              F     # Default value
Vna.Filter              F     # Default value
PCC.Filter              F     # Default value
PAO.BasisType     split          # Default value
Atom-Setup-Only              F     # Default value
UseStructFile              F     # Default value
MD.UseStructFile              F     # Default value
LatticeConstant          2.709112452           Bohr
# Above item originally: LatticeConstant          1.433600000     Ang       

%block LatticeVectors                                                          
   14.00000000        0.0000000000        0.0000000000                         
   0.000000000        3.0000000000        0.0000000000                         
   0.000000000        0.0000000000       10.3923048480                         
%endblock LatticeVectors                                                       

AtomicCoordinatesFormat     ScaledCartesian                                                                                                                     
NumberOfAtoms                       24
ZM.UnitsLength     Bohr           # Default value
ZM.UnitsAngle     rad            # Default value
ZM.ForceTolLength         0.1555740000E-02 Ry/Bohr     # Default value
ZM.ForceTolAngle         0.3565490000E-02 Ry/rad     # Default value
ZM.MaxDisplLength         0.2000000000     Bohr     # Default value
ZM.MaxDisplAngle         0.3000000000E-02 rad     # Default value
ZM.CalcAllForces              F     # Default value

%block AtomicCoordinatesAndAtomicSpecies                                       
   0.0000000000   0.5000000000   0.8660254040  1                               
   0.0000000000  -0.5000000000   0.8660254040  1                               
   0.0000000000   1.0000000000   0.0000000000  1                               
   0.0000000000   2.0000000000   0.0000000000  1                               
   0.0000000000   0.5000000000   2.5980762120  1                               
   0.0000000000  -0.5000000000   2.5980762120  1                               
   0.0000000000   1.0000000000   1.7320508080  1                               
   0.0000000000   2.0000000000   1.7320508080  1                               
   0.0000000000   0.5000000000   4.3301270200  1                               
   0.0000000000  -0.5000000000   4.3301270200  1                               
   0.0000000000   1.0000000000   3.4641016160  1                               
   0.0000000000   2.0000000000   3.4641016160  1                               
   0.0000000000   0.5000000000   6.0621778280  1                               
   0.0000000000  -0.5000000000   6.0621778280  1                               
   0.0000000000   1.0000000000   5.1961524240  1                               
   0.0000000000   2.0000000000   5.1961524240  1                               
   0.0000000000   0.5000000000   7.7942286360  1                               
   0.0000000000  -0.5000000000   7.7942286360  1                               
   0.0000000000   1.0000000000   6.9282032320  1                               
   0.0000000000   2.0000000000   6.9282032320  1                               
   0.0000000000   0.5000000000   9.5262794440  1                               
   0.0000000000  -0.5000000000   9.5262794440  1                               
   0.0000000000   1.0000000000   8.6602540400  1                               
   0.0000000000   2.0000000000   8.6602540400  1                               
%endblock AtomicCoordinatesAndAtomicSpecies                                    

UseSaveData              F     # Default value
MD.UseSaveXV              F     # Default value
MD.UseSaveZM              F     # Default value
WriteCoorInitial              T     # Default value
MD.TypeOfRun     none     # Default value
MaxBondDistance          6.000000000     Bohr     # Default value
Output-Structure-Only              F     # Default value
SpinPolarized              F     # Default value
NonCollinearSpin              F     # Default value
LongOutput              F     # Default value
WriteDenchar              F     # Default value
WriteMullikenPop              0     # Default value
WriteHirshfeldPop              F     # Default value
WriteVoronoiPop              F     # Default value
PartialChargesAtEveryGeometry              F     # Default value
PartialChargesAtEveryScfStep              F     # Default value
MeshCutoff          100.0000000             Ry
# Above item originally: MeshCutoff          100.0000000     Ry        
NetCharge          0.000000000         # Default value
MaxSCFIterations                      500
SCFMustConverge              F     # Default value
DM.NumberPulay                        5
DM.NumberBroyden              0     # Default value
DM.FIRE.Mixing              F     # Default value
DM.MixSCF1              F     # Default value
DM.PulayOnFile              F     # Default value
DM.Pulay.Avoid.First.After.Kick              F     # Default value
DM.MixingWeight         0.1000000000    
DM.OccupancyTolerance         0.1000000000E-11     # Default value
DM.NumberKick              0     # Default value
DM.KickMixingWeight         0.5000000000         # Default value
DM.Tolerance         0.1000000000E-03
DM.RequireEnergyConvergence              F     # Default value
DM.EnergyTolerance         0.7349806700E-05 Ry     # Default value
DM.RequireHarrisConvergence              F     # Default value
DM.HarrisTolerance         0.7349806700E-05 Ry     # Default value
UseSaveData              F     # Default value
DM.UseSaveDM              F     # Default value
NeglNonOverlapInt              F     # Default value
SolutionMethod     transiesta                                                                                                                          
