Siesta Version:                                        siesta-3.2-pl-5
Architecture  : x86_64-unknown-linux-gnu--unknown
Compiler flags: mpif90 -g -O2
PARALLEL version

* Running in serial mode with MPI
>> Start of run:  13-OCT-2015  14:37:30

                           ***********************       
                           *  WELCOME TO SIESTA  *       
                           ***********************       

reinit: Reading from standard input
************************** Dump of input data file ****************************
SystemName          graphene
SystemLabel         graphene
NumberOfAtoms          24
NumberOfSpecies        1
%block ChemicalSpeciesLabel
  1   6  C
%endblock ChemicalSpeciesLabel
%block PAO.Basis                 # Define Basis set
C           2                    # Species label, number of l-shells
 n=2   0   1                         # n, l, Nzeta
   4.088
   1.000
 n=2   1   1                       # n, l, Nzeta, Polarization, NzetaPol
   4.870
   1.000
%endblock PAO.Basis
XC.functional GGA
XC.authors    PBE
LatticeConstant     1.433600 Ang
%block LatticeVectors
   14.00000000        0.0000000000        0.0000000000
   0.000000000        3.0000000000        0.0000000000
   0.000000000        0.0000000000       10.3923048480
%endblock LatticeVectors
AtomicCoordinatesFormat ScaledCartesian
%block AtomicCoordinatesAndAtomicSpecies
   0.0000000000   0.5000000000   0.8660254040  1
   0.0000000000  -0.5000000000   0.8660254040  1
   0.0000000000   1.0000000000   0.0000000000  1
   0.0000000000   2.0000000000   0.0000000000  1
   0.0000000000   0.5000000000   2.5980762120  1
   0.0000000000  -0.5000000000   2.5980762120  1
   0.0000000000   1.0000000000   1.7320508080  1
   0.0000000000   2.0000000000   1.7320508080  1
   0.0000000000   0.5000000000   4.3301270200  1
   0.0000000000  -0.5000000000   4.3301270200  1
   0.0000000000   1.0000000000   3.4641016160  1
   0.0000000000   2.0000000000   3.4641016160  1
   0.0000000000   0.5000000000   6.0621778280  1
   0.0000000000  -0.5000000000   6.0621778280  1
   0.0000000000   1.0000000000   5.1961524240  1
   0.0000000000   2.0000000000   5.1961524240  1
   0.0000000000   0.5000000000   7.7942286360  1
   0.0000000000  -0.5000000000   7.7942286360  1
   0.0000000000   1.0000000000   6.9282032320  1
   0.0000000000   2.0000000000   6.9282032320  1
   0.0000000000   0.5000000000   9.5262794440  1
   0.0000000000  -0.5000000000   9.5262794440  1
   0.0000000000   1.0000000000   8.6602540400  1
   0.0000000000   2.0000000000   8.6602540400  1
%endblock AtomicCoordinatesAndAtomicSpecies
%block kgrid_Monkhorst_Pack
   1   0   0  0.0
   0  20   0  0.5
   0   0  10  0.5
%endblock Kgrid_Monkhorst_Pack
MeshCutoff         100.0 Ry
MaxSCFIterations     500
DM.MixingWeight      0.1
DM.NumberPulay       5
DM.Tolerance         1.d-4
SolutionMethod   transiesta
TS.WriteHS  .true.
TS.NumUsedAtomsLeft   8
TS.NumUsedAtomsRight  8
TS.HSFileLeft   '../electrode/graphene.TSHS'
TS.HSFileRight  '../electrode/graphene.TSHS'
TS.TBT.HSFile   './graphene.TSHS'
TS.TBT.Emin    -4.0 eV
TS.TBT.Emax     4.0 eV
TS.TBT.NPoints   200
************************** End of input data file *****************************

reinit: -----------------------------------------------------------------------
reinit: System Name: graphene
reinit: -----------------------------------------------------------------------
reinit: System Label: graphene                                                    
reinit: -----------------------------------------------------------------------

initatom: Reading input for the pseudopotentials and atomic orbitals ----------
 Species number:            1  Label: C Atomic number:           6
Ground state valence configuration:   2s02  2p02
Reading pseudopotential information in formatted form from C.psf

Valence configuration for pseudopotential generation:
2s( 2.00) rc: 1.25
2p( 2.00) rc: 1.25
3d( 0.00) rc: 1.25
4f( 0.00) rc: 1.25
For C, standard SIESTA heuristics set lmxkb to 2
 (one more than the basis l, including polarization orbitals).
Use PS.lmax or PS.KBprojectors blocks to override.

<basis_specs>
===============================================================================
C                    Z=   6    Mass=  12.010        Charge= 0.17977+309
Lmxo=1 Lmxkb= 2    BasisType=split      Semic=F
L=0  Nsemic=0  Cnfigmx=2
          n=1  nzeta=1  polorb=0
            splnorm:   0.15000    
               vcte:    0.0000    
               rinn:    0.0000    
                rcs:    4.0880    
            lambdas:    1.0000    
L=1  Nsemic=0  Cnfigmx=2
          n=1  nzeta=1  polorb=0
            splnorm:   0.15000    
               vcte:    0.0000    
               rinn:    0.0000    
                rcs:    4.8700    
            lambdas:    1.0000    
-------------------------------------------------------------------------------
L=0  Nkbl=1  erefs: 0.17977+309
L=1  Nkbl=1  erefs: 0.17977+309
L=2  Nkbl=1  erefs: 0.17977+309
===============================================================================
</basis_specs>

atom: Called for C                     (Z =   6)

read_vps: Pseudopotential generation method:
read_vps: ATM3      Troullier-Martins                       
Total valence charge:    4.00000

read_vps: Pseudopotential includes a core correction:
read_vps: Pseudo-core for xc-correction

xc_check: Exchange-correlation functional:
xc_check: GGA Perdew, Burke & Ernzerhof 1996
V l=0 = -2*Zval/r beyond r=  1.3270
V l=1 = -2*Zval/r beyond r=  1.3270
V l=2 = -2*Zval/r beyond r=  1.3270
All V_l potentials equal beyond r=  1.2311
This should be close to max(r_c) in ps generation
All pots = -2*Zval/r beyond r=  1.3270

VLOCAL1: 99.0% of the norm of Vloc inside     28.641 Ry
VLOCAL1: 99.9% of the norm of Vloc inside     65.273 Ry
atom: Maximum radius for 4*pi*r*r*local-pseudopot. charge    1.48507
atom: Maximum radius for r*vlocal+2*Zval:    1.27815
GHOST: No ghost state for L =  0
GHOST: No ghost state for L =  1
GHOST: No ghost state for L =  2

KBgen: Kleinman-Bylander projectors: 
   l= 0   rc=  1.466618   el= -1.009804   Ekb=  7.916662   kbcos=  0.281323
   l= 1   rc=  1.485071   el= -0.388706   Ekb= -4.690769   kbcos= -0.279005
   l= 2   rc=  1.641300   el=  0.001971   Ekb= -1.223675   kbcos= -0.004991

KBgen: Total number of  Kleinman-Bylander projectors:    9
atom: -------------------------------------------------------------------------

atom: SANKEY-TYPE ORBITALS:

SPLIT: Orbitals with angular momentum L= 0

SPLIT: Basis orbitals for state 2s

   izeta = 1
                 lambda =    1.000000
                     rc =    4.088342
                 energy =   -0.989113
                kinetic =    0.943943
    potential(screened) =   -1.933056
       potential(ionic) =   -5.533072

SPLIT: Orbitals with angular momentum L= 1

SPLIT: Basis orbitals for state 2p

   izeta = 1
                 lambda =    1.000000
                     rc =    4.870301
                 energy =   -0.368902
                kinetic =    2.591513
    potential(screened) =   -2.960416
       potential(ionic) =   -6.456646
atom: Total number of Sankey-type orbitals:  4

atm_pop: Valence configuration (for local Pseudopot. screening):
 2s( 2.00)                                                            
 2p( 2.00)                                                            
Vna: chval, zval:    4.00000   4.00000

Vna:  Cut-off radius for the neutral-atom potential:   4.870301
comcore: Pseudo-core radius Rcore=  1.791422

atom: _________________________________________________________________________

prinput: Basis input ----------------------------------------------------------

PAO.BasisType split     

%block ChemicalSpeciesLabel
    1    6 C                       # Species index, atomic number, species label
%endblock ChemicalSpeciesLabel

%block PAO.Basis                 # Define Basis set
C                     2                    # Species label, number of l-shells
 n=2   0   1                         # n, l, Nzeta 
   4.088   
   1.000   
 n=2   1   1                         # n, l, Nzeta 
   4.870   
   1.000   
%endblock PAO.Basis

prinput: ----------------------------------------------------------------------

coor:   Atomic-coordinates input format  =     Cartesian coordinates
coor:                                          (in units of alat)

siesta: Atomic coordinates (Bohr) and species
siesta:      0.00000   1.35456   2.34616  1        1
siesta:      0.00000  -1.35456   2.34616  1        2
siesta:      0.00000   2.70911   0.00000  1        3
siesta:      0.00000   5.41822   0.00000  1        4
siesta:      0.00000   1.35456   7.03848  1        5
siesta:      0.00000  -1.35456   7.03848  1        6
siesta:      0.00000   2.70911   4.69232  1        7
siesta:      0.00000   5.41822   4.69232  1        8
siesta:      0.00000   1.35456  11.73080  1        9
siesta:      0.00000  -1.35456  11.73080  1       10
siesta:      0.00000   2.70911   9.38464  1       11
siesta:      0.00000   5.41822   9.38464  1       12
siesta:      0.00000   1.35456  16.42312  1       13
siesta:      0.00000  -1.35456  16.42312  1       14
siesta:      0.00000   2.70911  14.07696  1       15
siesta:      0.00000   5.41822  14.07696  1       16
siesta:      0.00000   1.35456  21.11544  1       17
siesta:      0.00000  -1.35456  21.11544  1       18
siesta:      0.00000   2.70911  18.76928  1       19
siesta:      0.00000   5.41822  18.76928  1       20
siesta:      0.00000   1.35456  25.80776  1       21
siesta:      0.00000  -1.35456  25.80776  1       22
siesta:      0.00000   2.70911  23.46160  1       23
siesta:      0.00000   5.41822  23.46160  1       24

siesta: System type = slab      

initatomlists: Number of atoms, orbitals, and projectors:     24    96   216

siesta: ******************** Simulation parameters ****************************
siesta:
siesta: The following are some of the parameters of the simulation.
siesta: A complete list of the parameters used, including default values,
siesta: can be found in file out.fdf
siesta:
redata: Non-Collinear-spin run           =     F
redata: SpinPolarized (Up/Down) run      =     F
redata: Number of spin components        =     1
redata: Long output                      =     F
redata: Number of Atomic Species         =        1
redata: Charge density info will appear in .RHO file
redata: Write Mulliken Pop.              =     NO
redata: Mesh Cutoff                      =   100.0000  Ry
redata: Net charge of the system         =     0.0000 |e|
redata: Max. number of SCF Iter          =      500
redata: Performing Pulay mixing using    =     5 iterations
redata: Mix DM in first SCF step ?       =     F
redata: Write Pulay info on disk?        =     F
redata: Discard 1st Pulay DM after  kick =     F
redata: New DM Mixing Weight             =     0.1000
redata: New DM Occupancy tolerance       = 0.000000000001
redata: No kicks to SCF
redata: DM Mixing Weight for Kicks       =     0.5000
redata: DM Tolerance for SCF             =     0.000100
redata: Require Energy convergence for SCF =     F
redata: DM Energy tolerance for SCF      =     0.000100 eV
redata: Require Harris convergence for SCF =     F
redata: DM Harris energy tolerance for SCF =     0.000100 eV
redata: Using Saved Data (generic)   =     F
redata: Use continuation files for DM    =     F
redata: Neglect nonoverlap interactions  =     F
redata: The method of solution must be either OrderN or Diagon
ERROR STOP from Node:    0
