Siesta Version:                                        siesta-3.2-pl-5
Architecture  : x86_64-unknown-linux-gnu--unknown
Compiler flags: mpif90 -g -O2
PARALLEL version

* Running in serial mode with MPI
>> Start of run:  13-OCT-2015  14:52:21

                           ***********************       
                           *  WELCOME TO SIESTA  *       
                           ***********************       

reinit: Reading from standard input
************************** Dump of input data file ****************************
# ========================================================== #
# Basic input file for Siesta code: Pariodic Calculation     #
# System: Graphene (2D)                                      #
# ---------------------------------------------------------- #
# SystemName: name of the system                             #
# SystemName graphene (in this case)                         #
# SystemLabel: name used in output files (nickname)          #
# SystemLabel graphene                                       #
# (After a successful run, you should have files like this:  #
# benzene.DM : Density matrix                                #
# benzene.XV: Final positions and velocities                 #
# ...)                                                       #
# ========================================================== #
SystemName    graphene
SystemLabel   graphene
# ============= Atomic informations ===============
NumberOfAtoms       4
NumberOfSpecies      1
%block ChemicalSpeciesLabel
 1    6		C
%endblock ChemicalSpeciesLabel
# ======== lattice, cell and coordinates ==========
# === lattice constant ===
LatticeConstant   2.460 Ang
#====== Lattice Vectors - Simulation box ======
%block LatticeVectors
  4.260    1.230000    0.000000
  2.130   -1.230000    0.000000
  0.000    0.000000   1.000000
%endblock LatticeVectors
# === Coordinates and formats (input and output) ===
AtomicCoordinatesFormat Ang
AtomCoorFormatOut  Ang
%block AtomicCoordinatesAndAtomicSpecies
    0.000000    0.000000    0.000000	1
    1.420000    0.000000    0.000000	1
    2.130000    1.229000    0.000000	1
    3.550000    1.229000    0.000000	1
%endblock AtomicCoordinatesAndAtomicSpecies
# ============== kspace Grid and cutoff =============
%block kgrid_Monkhorst_Pack
 9   0   0     0.0
 0   9   0     0.0
 0   0   1     0.0
%endblock kgrid_Monkhorst_Pack
MeshCutoff        50 Ry
# ============== Block to create supercells  =============
#%blockSuperCell
# 1   0   0
# 1   1   0
# 0   0   9
#%endblockSuperCell
#==== hold some atoms in the CG relaxation ====
#%block GeometryConstraints
#position from  1 to  180
#%endblock GeometryConstraints
#============== General variables ===================
#= Basis =
PAO.BasisSize     DZP
PAO.EnergyShift   0.03 eV
#============== MD variables =====================
# Type of Run              MD, FC, CG
# SCF  calculation         MD.NumCGsteps     0
# Structure relaxation     MD.NumCGsteps     600
#=================================================
MD.TypeOfRun      CG
MD.NumCGsteps     0
MD.MaxForceTol    0.01  eV/Ang
#=================== SCF variables ========================
# SCF max number of iterations - single point calculation.
# Mixing - 0.1 means 10 percent of the previous density.
# Pulay - how many densities will be considered.
# Tolerance - criteria to stop
# =========================================================
MaxSCFIterations      300
DM.MixingWeight       0.04
DM.NumberPulay        3
DM.Tolerance           1.d-4
#== Functional ==
XC.functional       LDA
XC.authors          CA
#======== Solution method =====================
# diagon, order-N or transiesta (transiesta)
#----------------------------------------------
# If the system is periodic and has many kpt
# ParallelOverK    .true.
#==============================================
SolutionMethod  diagon
#====================== Electronic temperature (FD or MP) ====================
#=============== determines the occupation of the electronic states ==========
#=============================================================================
OccupationFunction     FD
ElectronicTemperature  50 meV
#=============== Write ================
WriteMullikenPop                1
WriteBands                      .false.
SaveRho                         T
SaveDeltaRho                    T
SaveHS                          .false.
SaveElectrostaticPotential      .false.
SaveTotalPotential              no
WriteCoorXmol                   .true.
WriteMDXmol                     .true.
#WriteMDhistory                  .false.
WriteEigenvalues                yes
#=============== Calculation Reestart ================
#UseSaveData     true
#DM.UseSaveDM    true
#MD.UseSaveXV    true
#MD.UseSaveCG    true
************************** End of input data file *****************************

reinit: -----------------------------------------------------------------------
reinit: System Name: graphene
reinit: -----------------------------------------------------------------------
reinit: System Label: graphene                                                    
reinit: -----------------------------------------------------------------------

initatom: Reading input for the pseudopotentials and atomic orbitals ----------
 Species number:            1  Label: C Atomic number:           6
Ground state valence configuration:   2s02  2p02
Reading pseudopotential information in formatted form from C.psf

Valence configuration for pseudopotential generation:
2s( 2.00) rc: 1.25
2p( 2.00) rc: 1.25
3d( 0.00) rc: 1.25
4f( 0.00) rc: 1.25
For C, standard SIESTA heuristics set lmxkb to 3
 (one more than the basis l, including polarization orbitals).
Use PS.lmax or PS.KBprojectors blocks to override.

<basis_specs>
===============================================================================
C                    Z=   6    Mass=  12.010        Charge= 0.17977+309
Lmxo=1 Lmxkb= 3    BasisType=split      Semic=F
L=0  Nsemic=0  Cnfigmx=2
          n=1  nzeta=2  polorb=0
            splnorm:   0.15000    
               vcte:    0.0000    
               rinn:    0.0000    
                rcs:    0.0000      0.0000    
            lambdas:    1.0000      1.0000    
L=1  Nsemic=0  Cnfigmx=2
          n=1  nzeta=2  polorb=1
            splnorm:   0.15000    
               vcte:    0.0000    
               rinn:    0.0000    
                rcs:    0.0000      0.0000    
            lambdas:    1.0000      1.0000    
-------------------------------------------------------------------------------
L=0  Nkbl=1  erefs: 0.17977+309
L=1  Nkbl=1  erefs: 0.17977+309
L=2  Nkbl=1  erefs: 0.17977+309
L=3  Nkbl=1  erefs: 0.17977+309
===============================================================================
</basis_specs>

atom: Called for C                     (Z =   6)

read_vps: Pseudopotential generation method:
read_vps: ATM3      Troullier-Martins                       
Total valence charge:    4.00000

read_vps: Pseudopotential includes a core correction:
read_vps: Pseudo-core for xc-correction

xc_check: Exchange-correlation functional:
xc_check: Ceperley-Alder
xc_check: WARNING: Pseudopotential generated with GGA Perdew, Burke & Ernzerhof 1996 functional
V l=0 = -2*Zval/r beyond r=  1.3270
V l=1 = -2*Zval/r beyond r=  1.3270
V l=2 = -2*Zval/r beyond r=  1.3270
V l=3 = -2*Zval/r beyond r=  1.3270
All V_l potentials equal beyond r=  1.2311
This should be close to max(r_c) in ps generation
All pots = -2*Zval/r beyond r=  1.3270

VLOCAL1: 99.0% of the norm of Vloc inside     28.641 Ry
VLOCAL1: 99.9% of the norm of Vloc inside     65.273 Ry
atom: Maximum radius for 4*pi*r*r*local-pseudopot. charge    1.48507
atom: Maximum radius for r*vlocal+2*Zval:    1.27815
GHOST: No ghost state for L =  0
GHOST: No ghost state for L =  1
GHOST: No ghost state for L =  2
GHOST: No ghost state for L =  3

KBgen: Kleinman-Bylander projectors: 
   l= 0   rc=  1.466618   el= -0.993243   Ekb=  7.919456   kbcos=  0.278713
   l= 1   rc=  1.485071   el= -0.377706   Ekb= -4.691706   kbcos= -0.274355
   l= 2   rc=  1.641300   el=  0.002326   Ekb= -1.224148   kbcos= -0.005036
   l= 3   rc=  1.747182   el=  0.003420   Ekb= -0.477402   kbcos= -0.000509

KBgen: Total number of  Kleinman-Bylander projectors:   16
atom: -------------------------------------------------------------------------

atom: SANKEY-TYPE ORBITALS:
atom: Selected multiple-zeta basis: split     

SPLIT: Orbitals with angular momentum L= 0

SPLIT: Basis orbitals for state 2s

SPLIT: PAO cut-off radius determined from an
SPLIT: energy shift=  0.002205 Ry

   izeta = 1
                 lambda =    1.000000
                     rc =    5.382558
                 energy =   -0.991266
                kinetic =    0.848090
    potential(screened) =   -1.839356
       potential(ionic) =   -5.389969

   izeta = 2
                 rmatch =    3.518811
              splitnorm =    0.150000
                 energy =   -0.876517
                kinetic =    1.289828
    potential(screened) =   -2.166345
       potential(ionic) =   -5.963401

SPLIT: Orbitals with angular momentum L= 1

SPLIT: Basis orbitals for state 2p

SPLIT: PAO cut-off radius determined from an
SPLIT: energy shift=  0.002205 Ry

   izeta = 1
                 lambda =    1.000000
                     rc =    6.740804
                 energy =   -0.375521
                kinetic =    2.326421
    potential(screened) =   -2.701942
       potential(ionic) =   -6.085463

   izeta = 2
                 rmatch =    3.840617
              splitnorm =    0.150000
                 energy =   -0.259623
                kinetic =    3.462988
    potential(screened) =   -3.722611
       potential(ionic) =   -7.510262

POLgen: Perturbative polarization orbital with L=  2

POLgen: Polarization orbital for state 2p

   izeta = 1
                     rc =    6.740804
                 energy =    0.936005
                kinetic =    1.965355
    potential(screened) =   -1.029351
       potential(ionic) =   -3.693090
atom: Total number of Sankey-type orbitals: 13

atm_pop: Valence configuration (for local Pseudopot. screening):
 2s( 2.00)                                                            
 2p( 2.00)                                                            
Vna: chval, zval:    4.00000   4.00000

Vna:  Cut-off radius for the neutral-atom potential:   6.740804
comcore: Pseudo-core radius Rcore=  1.791422

atom: _________________________________________________________________________

prinput: Basis input ----------------------------------------------------------

PAO.BasisType split     

%block ChemicalSpeciesLabel
    1    6 C                       # Species index, atomic number, species label
%endblock ChemicalSpeciesLabel

%block PAO.Basis                 # Define Basis set
C                     2                    # Species label, number of l-shells
 n=2   0   2                         # n, l, Nzeta 
   5.383      3.519   
   1.000      1.000   
 n=2   1   2 P   1                   # n, l, Nzeta, Polarization, NzetaPol
   6.741      3.841   
   1.000      1.000   
%endblock PAO.Basis

prinput: ----------------------------------------------------------------------

coor:   Atomic-coordinates input format  =     Cartesian coordinates
coor:                                          (in Angstroms)

siesta: Atomic coordinates (Bohr) and species
siesta:      0.00000   0.00000   0.00000  1        1
siesta:      2.68341   0.00000   0.00000  1        2
siesta:      4.02512   2.32247   0.00000  1        3
siesta:      6.70853   2.32247   0.00000  1        4

siesta: System type = bulk      

initatomlists: Number of atoms, orbitals, and projectors:      4    52    64

siesta: ******************** Simulation parameters ****************************
siesta:
siesta: The following are some of the parameters of the simulation.
siesta: A complete list of the parameters used, including default values,
siesta: can be found in file out.fdf
siesta:
redata: Non-Collinear-spin run           =     F
redata: SpinPolarized (Up/Down) run      =     F
redata: Number of spin components        =     1
redata: Long output                      =     F
redata: Number of Atomic Species         =        1
redata: Charge density info will appear in .RHO file
redata: Write Mulliken Pop.              =     Atomic and Orbital charges
redata: Mesh Cutoff                      =    50.0000  Ry
redata: Net charge of the system         =     0.0000 |e|
redata: Max. number of SCF Iter          =      300
redata: Performing Pulay mixing using    =     3 iterations
redata: Mix DM in first SCF step ?       =     F
redata: Write Pulay info on disk?        =     F
redata: Discard 1st Pulay DM after  kick =     F
redata: New DM Mixing Weight             =     0.0400
redata: New DM Occupancy tolerance       = 0.000000000001
redata: No kicks to SCF
redata: DM Mixing Weight for Kicks       =     0.5000
redata: DM Tolerance for SCF             =     0.000100
redata: Require Energy convergence for SCF =     F
redata: DM Energy tolerance for SCF      =     0.000100 eV
redata: Require Harris convergence for SCF =     F
redata: DM Harris energy tolerance for SCF =     0.000100 eV
redata: Using Saved Data (generic)   =     F
redata: Use continuation files for DM    =     F
redata: Neglect nonoverlap interactions  =     F
redata: Method of Calculation            =     Diagonalization
redata: Divide and Conquer               =     T
redata: Electronic Temperature           =     0.0037  Ry
redata: Fix the spin of the system       =     F
redata: Dynamics option                  =     CG coord. optimization
redata: Variable cell                    =     F
redata: Use continuation files for CG    =     F
redata: Max atomic displ per move        =     0.2000  Bohr
redata: Maximum number of CG moves       =        0
redata: Force tolerance                  =     0.0004  Ry/Bohr
redata: ***********************************************************************
Total number of electrons:    16.000000
Total ionic charge:    16.000000

* ProcessorY, Blocksize:    1  24

 Kpoints in:           45 . Kpoints trimmed:           41

siesta: k-grid: Number of k-points =    41
siesta: k-grid: Cutoff (effective) =     1.230 Ang
siesta: k-grid: Supercell and displacements
siesta: k-grid:    9   0   0      0.000
siesta: k-grid:    0   9   0      0.000
siesta: k-grid:    0   0   1      0.000
Naive supercell factors:     2    3    8
Auxiliary supercell needs to be larger than naive one...

superc: Internal auxiliary supercell:     3 x     3 x     8  =      72
superc: Number of atoms, orbitals, and projectors:    288   3744   4608

* Maximum dynamic memory allocated =     1 MB

siesta:                 ==============================
                            Begin CG move =      0
                        ==============================

superc: Internal auxiliary supercell:     3 x     3 x     8  =      72
superc: Number of atoms, orbitals, and projectors:    288   3744   4608

outcell: Unit cell vectors (Ang):
       10.479600    3.025800    0.000000
        5.239800   -3.025800    0.000000
        0.000000    0.000000    2.460000

outcell: Cell vector modules (Ang)   :   10.907680    6.050700    2.460000
outcell: Cell angles (23,13,12) (deg):     90.0000     90.0000     46.1101
outcell: Cell volume (Ang**3)        :    117.0069
New_DM. Step:     1
Initializing Density Matrix...

InitMesh: MESH =    48 x    30 x    18 =       25920
InitMesh: Mesh cutoff (required, used) =    50.000    72.878 Ry

* Maximum dynamic memory allocated =    18 MB

stepf: Fermi-Dirac step function

siesta: Program's energy decomposition (eV):
siesta: Ebs     =      -227.628831
siesta: Eions   =      1264.537926
siesta: Ena     =       445.004423
siesta: Ekin    =       345.537336
siesta: Enl     =        37.110372
siesta: DEna    =         0.000000
siesta: DUscf   =         0.000000
siesta: DUext   =         0.000000
siesta: Exc     =      -172.337500
siesta: eta*DQ  =         0.000000
siesta: Emadel  =         0.000000
siesta: Emeta   =         0.000000
siesta: Emolmec =         0.000000
siesta: Ekinion =         0.000000
siesta: Eharris =      -612.101306
siesta: Etot    =      -609.223295
siesta: FreeEng =      -609.223295

siesta: iscf   Eharris(eV)      E_KS(eV)   FreeEng(eV)   dDmax  Ef(eV)
siesta:    1     -612.1013     -609.2233     -609.2233  1.5912 -6.7998
timer: Routine,Calls,Time,% = IterSCF        1       1.481  87.72
elaps: Routine,Calls,Wall,% = IterSCF        1       1.483  87.70
siesta:    2     -617.8736     -609.4450     -609.4450  1.3506 -5.8350
siesta:    3     -611.9578     -610.0333     -610.0871  0.7660 -6.2609
siesta:    4     -614.1448     -609.8654     -609.9866  1.1296 -6.0193
siesta:    5     -611.3475     -610.2669     -610.2952  0.4166 -6.4425
siesta:    6     -611.1361     -610.3274     -610.4322  0.2764 -6.5351
siesta:    7     -611.0488     -610.4193     -610.4648  0.2222 -6.5214
siesta:    8     -610.9681     -610.5599     -610.5981  0.2160 -6.5435
siesta:    9     -610.9635     -610.5720     -610.5875  0.1195 -6.6927
siesta:   10     -610.9741     -610.5919     -610.5946  0.0878 -6.7660
siesta:   11     -610.9500     -610.7832     -610.7844  0.0685 -6.7949
siesta:   12     -610.9421     -610.7430     -610.7448  0.0581 -6.7322
siesta:   13     -610.9381     -610.7605     -610.7635  0.0582 -6.7028
siesta:   14     -610.9305     -610.8455     -610.8497  0.0529 -6.6186
siesta:   15     -610.9277     -610.9053     -610.9156  0.0363 -6.6313
siesta:   16     -610.9268     -610.9099     -610.9183  0.0292 -6.6158
siesta:   17     -610.9244     -610.9363     -610.9460  0.0228 -6.5721
siesta:   18     -610.9248     -610.9453     -610.9584  0.0229 -6.5843
siesta:   19     -610.9250     -610.9466     -610.9576  0.0240 -6.5894
siesta:   20     -610.9259     -610.9284     -610.9387  0.0161 -6.6098
siesta:   21     -610.9260     -610.9267     -610.9353  0.0157 -6.6121
siesta:   22     -610.9261     -610.9230     -610.9314  0.0073 -6.6228
siesta:   23     -610.9263     -610.9228     -610.9310  0.0059 -6.6252
siesta:   24     -610.9269     -610.9241     -610.9320  0.0030 -6.6329
siesta:   25     -610.9269     -610.9244     -610.9317  0.0032 -6.6326
siesta:   26     -610.9266     -610.9270     -610.9343  0.0029 -6.6272
siesta:   27     -610.9266     -610.9272     -610.9348  0.0029 -6.6265
siesta:   28     -610.9265     -610.9272     -610.9348  0.0026 -6.6257
siesta:   29     -610.9265     -610.9268     -610.9345  0.0022 -6.6268
siesta:   30     -610.9266     -610.9263     -610.9339  0.0019 -6.6282
siesta:   31     -610.9267     -610.9261     -610.9337  0.0015 -6.6294
siesta:   32     -610.9268     -610.9262     -610.9336  0.0013 -6.6296
siesta:   33     -610.9267     -610.9267     -610.9341  0.0014 -6.6288
siesta:   34     -610.9267     -610.9268     -610.9343  0.0013 -6.6285
siesta:   35     -610.9266     -610.9270     -610.9345  0.0010 -6.6276
siesta:   36     -610.9266     -610.9270     -610.9346  0.0009 -6.6276
siesta:   37     -610.9266     -610.9269     -610.9345  0.0009 -6.6281
siesta:   38     -610.9267     -610.9268     -610.9344  0.0008 -6.6283
siesta:   39     -610.9267     -610.9268     -610.9343  0.0007 -6.6287
siesta:   40     -610.9267     -610.9267     -610.9342  0.0006 -6.6289
siesta:   41     -610.9267     -610.9268     -610.9342  0.0005 -6.6288
siesta:   42     -610.9267     -610.9269     -610.9344  0.0005 -6.6284
siesta:   43     -610.9267     -610.9269     -610.9345  0.0005 -6.6283
siesta:   44     -610.9267     -610.9269     -610.9344  0.0004 -6.6284
siesta:   45     -610.9267     -610.9269     -610.9344  0.0004 -6.6285
siesta:   46     -610.9267     -610.9268     -610.9343  0.0003 -6.6289
siesta:   47     -610.9267     -610.9268     -610.9343  0.0003 -6.6289
siesta:   48     -610.9267     -610.9268     -610.9342  0.0002 -6.6289
siesta:   49     -610.9267     -610.9268     -610.9343  0.0002 -6.6289
siesta:   50     -610.9267     -610.9268     -610.9343  0.0002 -6.6287
siesta:   51     -610.9267     -610.9268     -610.9343  0.0002 -6.6287
siesta:   52     -610.9267     -610.9268     -610.9343  0.0002 -6.6288
siesta:   53     -610.9267     -610.9267     -610.9342  0.0001 -6.6289
siesta:   54     -610.9267     -610.9267     -610.9342  0.0001 -6.6290
siesta:   55     -610.9267     -610.9267     -610.9342  0.0001 -6.6290

siesta: E_KS(eV) =             -610.9267

siesta: E_KS - E_eggbox =      -610.9267

siesta: Atomic forces (eV/Ang):
----------------------------------------
   Tot    0.006387   -0.014139   -0.000005
----------------------------------------
   Max    2.596181
   Res    1.564849    sqrt( Sum f_i^2 / 3N )
----------------------------------------
   Max    2.596181    constrained

Stress-tensor-Voigt (kbar):       15.38       26.27      272.20      -28.91        0.00        0.00
(Free)E + p*V (eV/cell)     -618.5742
Target enthalpy (eV/cell)     -610.9342

mulliken: Mulliken Atomic and Orbital Populations:

Species: C                   
Atom  Qatom  Qorb
               2s      2s      2py     2pz     2px     2py     2pz     2px     
               2Pdxy   2Pdyz   2Pdz2   2Pdxz   2Pdx2-y2
   1  4.007   1.343   0.333   0.556   0.305   0.977   0.153  -0.039   0.272
              0.034   0.000   0.039   0.015   0.020
   2  3.993   0.687   0.522   0.621   0.731   0.542   0.346  -0.029   0.444
              0.033   0.011   0.025   0.000   0.060
   3  3.992   0.686   0.522   0.622   0.732   0.542   0.345  -0.030   0.443
              0.033   0.011   0.025   0.000   0.060
   4  4.008   1.346   0.332   0.555   0.304   0.976   0.153  -0.039   0.273
              0.034   0.000   0.039   0.015   0.020

mulliken: Qtot =       16.000

* Maximum dynamic memory allocated =    18 MB

coxmol: Writing XMOL coordinates into file graphene.xyz                                                    

siesta: Eigenvalues (eV):
  ik is    eps
   1  1 -23.71 -21.13 -16.77 -12.38 -10.77 -10.59  -8.25  -6.88  -6.36  -5.54
         -4.57  -1.22   1.74   2.47   3.16   3.90   4.33   5.15   5.86   6.19
          7.52   7.76   8.36  10.15  10.76  13.18  13.72  16.80  20.19  21.66
         23.50  23.99  24.24  29.13  29.21  31.48  33.18  34.14  36.50  38.14
         41.16  42.47  43.63  46.79  48.21  48.92  50.32  53.94  59.80  63.44
         74.20  79.33
   2  1 -23.71 -21.13 -16.77 -12.38 -10.77 -10.58  -8.26  -6.88  -6.34  -5.55
         -4.57  -1.22   1.74   2.58   3.16   3.82   4.39   5.15   5.52   6.43
          7.44   7.92   8.39  10.18  10.75  13.10  13.73  16.70  20.15  21.79
         23.50  23.99  24.06  29.10  29.22  31.21  33.18  34.07  36.56  38.19
         41.73  42.39  43.74  46.88  48.21  48.79  50.21  53.84  59.91  63.79
         73.92  79.43
   3  1 -23.71 -21.13 -16.77 -12.38 -10.76 -10.57  -8.28  -6.88  -6.32  -5.57
         -4.57  -1.22   1.74   2.76   3.16   3.71   4.45   5.08   5.25   6.62
          7.37   8.09   8.44  10.25  10.72  12.97  13.73  16.53  20.10  21.99
         23.51  23.82  23.98  29.07  29.23  30.82  33.18  34.01  36.63  38.26
         42.26  42.43  43.97  47.04  48.31  48.57  49.94  53.80  60.03  64.36
         73.47  79.58
   4  1 -23.71 -21.13 -16.77 -12.38 -10.76 -10.57  -8.30  -6.88  -6.30  -5.58
         -4.57  -1.22   1.74   2.94   3.16   3.63   4.48   4.88   5.19   6.74
          7.31   8.21   8.50  10.38  10.65  12.85  13.73  16.38  20.04  22.16
         23.51  23.64  23.98  29.04  29.24  30.49  33.17  33.98  36.69  38.33
         42.15  42.86  44.25  47.21  48.35  48.56  49.55  53.88  60.10  64.89
         73.05  79.71
   5  1 -23.71 -21.13 -16.77 -12.38 -10.76 -10.56  -8.31  -6.88  -6.29  -5.58
         -4.57  -1.22   1.74   3.02   3.16   3.60   4.49   4.78   5.18   6.79
          7.29   8.25   8.52  10.52  10.54  12.81  13.73  16.31  20.02  22.23
         23.52  23.58  23.98  29.03  29.24  30.36  33.17  33.97  36.71  38.36
         42.10  42.98  44.37  47.29  48.24  48.84  49.23  53.94  60.12  65.11
         72.87  79.75
   6  1 -23.71 -21.13 -16.77 -12.39 -10.76 -10.59  -8.24  -6.88  -6.37  -5.49
         -4.57  -1.22   1.73   2.38   3.14   3.71   4.11   5.53   5.79   6.36
          7.53   7.79   8.40  10.15  10.75  13.11  13.77  16.72  20.00  21.59
         23.50  24.00  24.08  29.13  29.19  30.88  33.27  34.14  36.61  38.10
         41.22  42.48  43.21  46.70  47.47  49.20  49.42  53.89  59.94  63.43
         73.67  79.07
   7  1 -23.71 -21.13 -16.77 -12.39 -10.76 -10.59  -8.24  -6.88  -6.37  -5.50
         -4.57  -1.22   1.73   2.38   3.13   3.76   4.02   5.54   6.09   6.13
          7.37   7.86   8.43  10.12  10.72  13.19  13.76  16.73  19.98  21.55
         23.50  24.00  24.11  29.12  29.21  31.06  33.28  34.16  36.59  38.11
         40.86  42.51  43.39  46.72  47.55  49.15  49.26  53.96  60.11  63.35
         73.77  78.95
   8  1 -23.71 -21.13 -16.77 -12.39 -10.76 -10.58  -8.26  -6.88  -6.35  -5.51
         -4.57  -1.22   1.73   2.47   3.15   3.76   3.96   5.52   5.76   6.45
          7.27   7.96   8.48  10.11  10.69  13.18  13.75  16.64  19.93  21.65
         23.50  23.96  24.00  29.09  29.22  30.99  33.27  34.11  36.62  38.17
         41.03  42.46  43.70  46.84  47.58  48.95  49.03  53.98  60.30  63.64
         73.58  78.93
   9  1 -23.71 -21.13 -16.77 -12.39 -10.76 -10.57  -8.28  -6.88  -6.33  -5.52
         -4.57  -1.22   1.74   2.59   3.20   3.66   3.99   5.30   5.63   6.71
          7.22   8.07   8.54  10.16  10.66  13.09  13.75  16.49  19.87  21.83
         23.50  23.74  23.99  29.06  29.22  30.70  33.27  34.06  36.67  38.24
         41.48  42.35  44.10  47.02  47.62  48.70  48.74  54.05  60.40  64.19
         73.17  79.02
  10  1 -23.71 -21.13 -16.77 -12.39 -10.76 -10.56  -8.30  -6.88  -6.31  -5.53
         -4.57  -1.22   1.74   2.69   3.29   3.57   4.06   4.97   5.62   6.88
          7.21   8.16   8.57  10.27  10.61  12.96  13.75  16.33  19.83  22.00
         23.51  23.56  23.99  29.04  29.22  30.33  33.27  34.02  36.72  38.31
         41.92  42.23  44.43  47.17  47.70  48.50  48.50  54.12  60.36  64.76
         72.72  79.16
  11  1 -23.71 -21.13 -16.77 -12.39 -10.75 -10.56  -8.31  -6.88  -6.31  -5.53
         -4.57  -1.22   1.74   2.71   3.34   3.55   4.12   4.78   5.61   6.90
          7.30   8.24   8.52  10.44  10.53  12.85  13.75  16.26  19.83  22.08
         23.48  23.51  23.99  29.03  29.22  30.08  33.26  34.00  36.75  38.33
         42.16  42.24  44.49  47.18  47.59  48.49  48.63  54.07  60.25  65.07
         72.44  79.30
  12  1 -23.71 -21.13 -16.77 -12.39 -10.76 -10.56  -8.30  -6.88  -6.32  -5.53
         -4.57  -1.22   1.74   2.67   3.30   3.57   4.15   4.84   5.60   6.81
          7.43   8.25   8.43  10.42  10.61  12.81  13.75  16.32  19.87  22.05
         23.51  23.51  23.99  29.05  29.21  30.04  33.26  34.00  36.75  38.29
         42.18  42.43  44.21  47.06  47.35  48.66  49.01  53.89  60.12  64.94
         72.52  79.37
  13  1 -23.71 -21.13 -16.77 -12.39 -10.76 -10.57  -8.28  -6.88  -6.34  -5.51
         -4.57  -1.22   1.74   2.57   3.23   3.60   4.16   5.10   5.57   6.70
          7.54   8.10   8.39  10.30  10.72  12.86  13.76  16.46  19.93  21.92
         23.50  23.66  24.00  29.08  29.20  30.22  33.27  34.02  36.72  38.21
         42.27  42.43  43.62  46.89  47.27  48.91  49.33  53.73  59.99  64.44
         72.89  79.34
  14  1 -23.71 -21.13 -16.77 -12.39 -10.76 -10.58  -8.26  -6.88  -6.36  -5.50
         -4.57  -1.22   1.73   2.45   3.17   3.65   4.16   5.42   5.56   6.55
          7.62   7.87   8.39  10.21  10.76  12.99  13.77  16.62  19.99  21.74
         23.50  23.88  24.00  29.12  29.19  30.55  33.27  34.07  36.66  38.14
         41.96  42.39  43.22  46.76  47.34  49.11  49.47  53.76  59.91  63.85
         73.33  79.23
  15  1 -23.71 -21.13 -16.77 -12.42 -10.74 -10.58  -8.25  -6.88  -6.39  -5.38
         -4.57  -1.22   1.73   2.22   3.00   3.38   3.87   5.48   6.19   6.69
          7.68   7.89   8.54  10.18  10.72  12.89  13.84  16.41  19.46  21.45
         23.49  23.55  24.03  29.11  29.15  29.57  33.50  34.10  36.61  38.04
         40.69  42.49  42.72  46.15  46.55  48.32  49.77  53.77  60.47  63.74
         72.28  78.28
  16  1 -23.71 -21.13 -16.77 -12.42 -10.74 -10.58  -8.23  -6.88  -6.40  -5.37
         -4.57  -1.22   1.73   2.18   2.99   3.31   3.90   5.82   6.18   6.55
          7.40   7.92   8.61  10.12  10.69  13.01  13.87  16.51  19.46  21.33
         23.49  23.72  24.03  29.10  29.18  29.82  33.51  34.14  36.57  38.00
         40.48  42.34  42.57  46.29  46.49  48.28  49.87  53.86  60.53  63.28
         72.62  78.17
  17  1 -23.71 -21.13 -16.77 -12.42 -10.74 -10.58  -8.24  -6.88  -6.39  -5.38
         -4.57  -1.22   1.73   2.18   3.01   3.30   3.85   6.07   6.22   6.38
          7.21   7.96   8.67  10.07  10.62  13.12  13.88  16.53  19.42  21.28
         23.49  23.78  24.03  29.09  29.20  30.02  33.51  34.18  36.54  38.01
         40.39  42.29  42.61  46.32  46.53  48.13  49.80  53.96  60.71  63.16
         72.74  78.02
  18  1 -23.71 -21.13 -16.77 -12.42 -10.74 -10.58  -8.25  -6.88  -6.38  -5.39
         -4.57  -1.22   1.73   2.23   3.05   3.36   3.73   5.91   6.14   6.62
          7.14   8.00   8.72  10.04  10.56  13.18  13.85  16.46  19.37  21.34
         23.49  23.67  24.03  29.07  29.20  30.06  33.50  34.18  36.53  38.08
         40.47  42.58  42.59  46.25  46.66  47.92  49.57  54.04  60.89  63.40
         72.59  77.91
  19  1 -23.71 -21.13 -16.77 -12.42 -10.74 -10.57  -8.27  -6.88  -6.35  -5.40
         -4.57  -1.22   1.73   2.29   3.11   3.46   3.61   5.50   6.18   6.94
          7.12   8.06   8.73  10.04  10.51  13.16  13.82  16.32  19.32  21.48
         23.48  23.49  24.02  29.05  29.19  29.90  33.50  34.17  36.56  38.16
         40.61  42.50  43.16  46.09  46.83  47.72  49.27  54.14  60.96  63.93
         72.20  77.90
  20  1 -23.70 -21.13 -16.77 -12.42 -10.74 -10.56  -8.29  -6.88  -6.34  -5.41
         -4.57  -1.22   1.73   2.34   3.14   3.47   3.69   5.12   6.21   7.06
          7.25   8.13   8.69  10.13  10.47  13.08  13.80  16.18  19.30  21.59
         23.35  23.50  24.02  29.04  29.18  29.62  33.50  34.15  36.60  38.23
         40.73  42.40  43.74  45.93  46.97  47.61  49.06  54.21  60.91  64.52
         71.74  77.99
  21  1 -23.70 -21.13 -16.77 -12.42 -10.74 -10.55  -8.30  -6.88  -6.33  -5.41
         -4.57  -1.22   1.73   2.35   3.10   3.50   3.82   4.86   6.22   7.00
          7.49   8.22   8.55  10.27  10.44  12.95  13.79  16.11  19.31  21.64
         23.30  23.50  24.02  29.04  29.16  29.37  33.50  34.13  36.63  38.24
         40.81  42.33  44.01  45.84  46.97  47.68  49.06  54.16  60.79  64.89
         71.43  78.12
  22  1 -23.70 -21.13 -16.77 -12.42 -10.74 -10.56  -8.29  -6.88  -6.35  -5.41
         -4.57  -1.22   1.73   2.33   3.05   3.59   3.78   4.90   6.23   6.91
          7.65   8.32   8.34  10.31  10.53  12.85  13.79  16.15  19.36  21.63
         23.31  23.50  24.02  29.07  29.15  29.27  33.50  34.10  36.64  38.19
         40.86  42.33  43.82  45.86  46.85  47.92  49.25  53.98  60.65  64.81
         71.48  78.25
  23  1 -23.71 -21.13 -16.77 -12.42 -10.74 -10.57  -8.27  -6.88  -6.37  -5.39
         -4.57  -1.22   1.73   2.28   3.02   3.52   3.79   5.15   6.21   6.80
          7.76   8.05   8.44  10.25  10.66  12.83  13.81  16.28  19.42  21.58
         23.38  23.49  24.03  29.10  29.14  29.35  33.50  34.09  36.63  38.11
         40.83  42.39  43.30  45.98  46.68  48.19  49.53  53.80  60.52  64.34
         71.84  78.31
  24  1 -23.70 -21.13 -16.77 -12.45 -10.72 -10.56  -8.26  -6.88  -6.38  -5.26
         -4.57  -1.22   1.73   2.05   2.60   3.53   3.56   5.28   6.72   6.90
          7.89   7.98   8.73  10.09  10.50  12.87  13.89  16.04  18.73  21.09
         23.17  23.49  24.05  28.64  29.07  29.13  33.77  34.23  36.15  38.02
         39.48  42.58  42.61  45.67  46.47  47.42  50.22  53.84  61.28  63.93
         71.03  76.88
  25  1 -23.70 -21.13 -16.77 -12.45 -10.72 -10.57  -8.24  -6.88  -6.40  -5.25
         -4.57  -1.22   1.73   2.02   2.58   3.32   3.69   5.62   6.63   6.89
          7.56   7.97   8.89  10.06  10.56  12.86  13.95  16.15  18.74  21.04
         23.27  23.48  24.06  28.80  29.06  29.16  33.77  34.15  36.22  37.93
         39.16  42.38  42.65  45.80  46.32  47.57  50.50  53.78  61.21  63.34
         71.50  76.90
  26  1 -23.71 -21.13 -16.77 -12.45 -10.72 -10.57  -8.23  -6.88  -6.42  -5.25
         -4.57  -1.22   1.73   2.00   2.59   3.19   3.76   5.98   6.52   6.88
          7.24   7.98   9.02  10.03  10.52  12.92  14.01  16.23  18.73  20.96
         23.40  23.48  24.06  28.97  29.05  29.19  33.78  34.12  36.27  37.89
         39.02  42.08  42.72  45.91  46.24  47.60  50.66  53.83  61.23  62.91
         71.82  76.85
  27  1 -23.71 -21.13 -16.77 -12.45 -10.72 -10.57  -8.23  -6.88  -6.41  -5.25
         -4.57  -1.22   1.73   2.00   2.60   3.18   3.73   6.28   6.39   6.79
          7.11   8.00   9.11  10.00  10.40  13.02  14.02  16.25  18.70  20.93
         23.44  23.48  24.06  29.04  29.09  29.20  33.78  34.15  36.23  37.90
         39.24  41.77  42.76  45.92  46.27  47.52  50.60  53.90  61.34  62.79
         71.89  76.75
  28  1 -23.70 -21.13 -16.77 -12.45 -10.72 -10.57  -8.24  -6.88  -6.40  -5.26
         -4.57  -1.22   1.73   2.03   2.63   3.27   3.61   5.99   6.61   6.77
          7.17   8.02   9.14   9.95  10.29  13.11  13.99  16.19  18.66  20.97
         23.36  23.48  24.05  29.04  29.10  29.19  33.77  34.23  36.13  37.97
         39.80  41.51  42.74  45.84  46.40  47.37  50.36  53.97  61.49  63.04
         71.68  76.65
  29  1 -23.70 -21.13 -16.77 -12.45 -10.72 -10.56  -8.26  -6.88  -6.37  -5.27
         -4.57  -1.22   1.73   2.06   2.66   3.45   3.48   5.58   6.70   6.90
          7.36   8.05   9.08   9.93  10.24  13.15  13.94  16.07  18.63  21.04
         23.23  23.49  24.05  28.99  29.03  29.17  33.77  34.31  36.07  38.06
         40.32  41.48  42.67  45.72  46.58  47.21  50.03  54.06  61.57  63.57
         71.25  76.61
  30  1 -23.70 -21.13 -16.77 -12.45 -10.72 -10.55  -8.28  -6.88  -6.36  -5.28
         -4.57  -1.22   1.73   2.09   2.68   3.35   3.70   5.19   6.74   6.98
          7.62   8.10   8.91   9.97  10.23  13.13  13.88  15.95  18.62  21.08
         23.17  23.49  24.05  28.80  29.03  29.14  33.77  34.36  36.06  38.13
         40.34  41.93  42.60  45.61  46.73  47.10  49.77  54.13  61.56  64.16
         70.76  76.62
  31  1 -23.70 -21.13 -16.77 -12.45 -10.72 -10.55  -8.29  -6.88  -6.35  -5.29
         -4.57  -1.22   1.73   2.09   2.67   3.33   3.86   4.94   6.76   6.98
          7.81   8.21   8.67  10.06  10.26  13.06  13.85  15.90  18.65  21.08
         23.16  23.49  24.05  28.63  29.05  29.12  33.77  34.36  36.08  38.15
         40.11  42.41  42.54  45.56  46.75  47.09  49.73  54.11  61.49  64.52
         70.48  76.70
  32  1 -23.70 -21.13 -16.77 -12.45 -10.72 -10.55  -8.28  -6.88  -6.36  -5.28
         -4.57  -1.22   1.73   2.08   2.63   3.42   3.77   5.00   6.76   6.94
          7.90   8.23   8.56  10.10  10.37  12.95  13.85  15.93  18.69  21.09
         23.15  23.49  24.05  28.57  29.06  29.11  33.77  34.31  36.10  38.10
         39.81  42.53  42.65  45.58  46.64  47.22  49.91  53.98  61.38  64.42
         70.60  76.80
  33  1 -23.70 -21.13 -16.77 -12.47 -10.71 -10.55  -8.28  -6.88  -6.37  -5.20
         -4.57  -1.22   1.73   1.96   2.36   3.29   3.78   5.10   6.89   7.13
          7.98   8.12   8.98   9.92  10.08  13.04  13.94  15.77  18.18  20.75
         23.07  23.49  24.06  28.21  29.04  29.12  33.95  34.54  35.58  38.05
         39.75  41.58  42.71  45.59  46.51  46.91  50.35  53.98  61.89  63.94
         70.25  75.73
  34  1 -23.70 -21.13 -16.77 -12.47 -10.71 -10.55  -8.26  -6.88  -6.39  -5.19
         -4.57  -1.22   1.73   1.95   2.32   3.43   3.53   5.42   6.81   7.13
          7.78   8.00   9.19   9.92  10.17  12.96  13.99  15.86  18.20  20.77
         23.07  23.48  24.07  28.32  29.03  29.15  33.95  34.38  35.69  37.97
         39.18  41.87  42.75  45.65  46.33  47.06  50.67  53.87  61.81  63.42
         70.77  75.76
  35  1 -23.70 -21.13 -16.77 -12.47 -10.71 -10.56  -8.23  -6.88  -6.41  -5.17
         -4.57  -1.22   1.73   1.93   2.30   3.29   3.58   5.79   6.70   7.13
          7.45   8.00   9.38   9.91  10.24  12.88  14.07  15.96  18.21  20.75
         23.14  23.48  24.07  28.45  29.03  29.18  33.96  34.19  35.86  37.88
         38.64  42.00  42.81  45.76  46.16  47.20  51.00  53.80  61.73  62.86
         71.29  75.77
  36  1 -23.70 -21.13 -16.77 -12.47 -10.71 -10.57  -8.22  -6.88  -6.42  -5.17
         -4.57  -1.22   1.73   1.92   2.29   3.17   3.67   6.15   6.55   7.07
          7.24   8.00   9.52   9.90  10.22  12.86  14.14  16.02  18.21  20.70
         23.24  23.48  24.07  28.55  29.02  29.20  33.96  34.07  36.01  37.82
         38.30  41.98  42.86  45.85  46.06  47.27  51.20  53.81  61.69  62.49
         71.62  75.76
  37  1 -23.70 -21.13 -16.77 -12.47 -10.71 -10.57  -8.22  -6.88  -6.42  -5.17
         -4.57  -1.22   1.73   1.92   2.29   3.16   3.66   6.28   6.50   6.96
          7.25   8.00   9.61   9.90  10.10  12.90  14.15  16.03  18.19  20.69
         23.26  23.48  24.07  28.59  29.02  29.20  33.96  34.08  36.00  37.83
         38.39  41.85  42.87  45.85  46.07  47.25  51.18  53.83  61.73  62.44
         71.63  75.73
  38  1 -23.70 -21.13 -16.77 -12.47 -10.71 -10.56  -8.23  -6.88  -6.41  -5.18
         -4.57  -1.22   1.73   1.93   2.31   3.28   3.56   5.93   6.71   7.00
          7.38   8.01   9.65   9.89   9.92  12.98  14.10  15.97  18.17  20.73
         23.17  23.48  24.07  28.55  29.02  29.19  33.95  34.22  35.84  37.89
         38.91  41.62  42.84  45.78  46.19  47.15  50.95  53.87  61.83  62.74
         71.34  75.70
  39  1 -23.70 -21.13 -16.77 -12.47 -10.71 -10.55  -8.26  -6.88  -6.38  -5.19
         -4.57  -1.22   1.73   1.95   2.34   3.40   3.50   5.54   6.84   7.06
          7.62   8.03   9.48   9.83   9.93  13.06  14.02  15.87  18.16  20.76
         23.09  23.48  24.07  28.43  29.02  29.16  33.95  34.41  35.68  37.99
         39.62  41.31  42.79  45.67  46.37  47.01  50.60  53.94  61.92  63.28
         70.82  75.68
  40  1 -23.70 -21.13 -16.77 -12.47 -10.71 -10.55  -8.28  -6.88  -6.36  -5.20
         -4.57  -1.22   1.73   1.96   2.37   3.27   3.75   5.17   6.91   7.10
          7.88   8.08   9.18   9.87   9.96  13.11  13.96  15.77  18.15  20.75
         23.07  23.49  24.06  28.29  29.03  29.13  33.95  34.56  35.58  38.07
         40.28  40.96  42.73  45.60  46.54  46.88  50.30  54.02  61.95  63.84
         70.29  75.68
  41  1 -23.70 -21.13 -16.77 -12.47 -10.70 -10.54  -8.28  -6.88  -6.36  -5.20
         -4.57  -1.22   1.73   1.97   2.38   3.23   3.90   4.98   6.93   7.12
          7.98   8.21   8.93   9.90  10.01  13.10  13.93  15.73  18.16  20.73
         23.08  23.49  24.06  28.20  29.04  29.11  33.95  34.61  35.55  38.09
         40.25  41.13  42.70  45.57  46.60  46.84  50.20  54.05  61.94  64.12
         70.04  75.70
siesta: Fermi energy =      -6.628974 eV

siesta: Program's energy decomposition (eV):
siesta: Ebs     =      -220.949310
siesta: Eions   =      1264.537926
siesta: Ena     =       445.004423
siesta: Ekin    =       384.337023
siesta: Enl     =         7.590007
siesta: DEna    =        -9.585363
siesta: DUscf   =         1.560424
siesta: DUext   =         0.000000
siesta: Exc     =      -175.295304
siesta: eta*DQ  =         0.000000
siesta: Emadel  =         0.000000
siesta: Emeta   =         0.000000
siesta: Emolmec =         0.000000
siesta: Ekinion =         0.000000
siesta: Eharris =      -610.926683
siesta: Etot    =      -610.926716
siesta: FreeEng =      -610.934202

siesta: Final energy (eV):
siesta:  Band Struct. =    -220.949310
siesta:       Kinetic =     384.337023
siesta:       Hartree =     492.728034
siesta:    Ext. field =       0.000000
siesta:   Exch.-corr. =    -175.295304
siesta:  Ion-electron =   -1367.214692
siesta:       Ion-ion =      54.518224
siesta:       Ekinion =       0.000000
siesta:         Total =    -610.926716

siesta: Atomic forces (eV/Ang):
siesta:      1    0.867740   -1.070239   -0.000005
siesta:      2   -2.593180    2.463188    0.000001
siesta:      3    2.596181   -2.466717   -0.000003
siesta:      4   -0.864355    1.059629    0.000002
siesta: ----------------------------------------
siesta:    Tot    0.006387   -0.014139   -0.000005

siesta: Stress tensor (static) (eV/Ang**3):
siesta:     0.009597   -0.018046    0.000000
siesta:    -0.018043    0.016399    0.000000
siesta:     0.000000    0.000000    0.169891

siesta: Cell volume =        117.006851 Ang**3

siesta: Pressure (static):
siesta:                Solid            Molecule  Units
siesta:          -0.00071115         -0.00061953  Ry/Bohr**3
siesta:          -0.06529545         -0.05688321  eV/Ang**3
siesta:        -104.61598040        -91.13794083  kBar
(Free)E+ p_basis*V_orbitals  =        -608.241678
(Free)Eharris+ p_basis*V_orbitals  =        -608.241638

* Maximum dynamic memory allocated : Node    0 =    18 MB

* Maximum memory occured during redistribXZ                   

timer: CPU execution times:
timer:  Routine       Calls   Time/call    Tot.time        %
timer:  siesta            1      35.248      35.248   100.00
timer:  Setup             1       0.077       0.077     0.22
timer:  bands             1       0.000       0.000     0.00
timer:  writewave         1       0.000       0.000     0.00
timer:  KSV_init          1       0.000       0.000     0.00
timer:  IterMD            1      34.919      34.919    99.07
timer:  hsparse           1       0.007       0.007     0.02
timer:  overlap           1       0.120       0.120     0.34
timer:  IterSCF          55       0.615      33.843    96.01
timer:  kinefsm           2       0.064       0.127     0.36
timer:  nlefsm            2       0.300       0.601     1.70
timer:  DHSCF            57       0.438      24.958    70.80
timer:  DHSCF1            1       0.021       0.021     0.06
timer:  DHSCF2            1       0.279       0.279     0.79
timer:  REORD           348       0.000       0.012     0.03
timer:  POISON           58       0.003       0.183     0.52
timer:  DHSCF3           57       0.426      24.307    68.96
timer:  rhoofd           57       0.229      13.070    37.08
timer:  cellXC           57       0.005       0.284     0.81
timer:  vmat             56       0.192      10.735    30.45
timer:  MolMec            2       0.000       0.000     0.00
timer:  diagon           55       0.167       9.194    26.08
timer:  c-eigval       2255       0.001       2.726     7.73
timer:  c-buildHS      2255       0.001       1.743     4.94
timer:  cdiag          4510       0.001       3.207     9.10
timer:  cdiag1         4510       0.000       0.212     0.60
timer:  cdiag2         4510       0.000       0.541     1.53
timer:  cdiag3         4510       0.001       2.371     6.73
timer:  cdiag4         4510       0.000       0.069     0.20
timer:  c-eigvec       2255       0.002       3.973    11.27
timer:  c-buildD       2255       0.001       2.437     6.91
timer:  DHSCF4            1       0.347       0.347     0.99
timer:  dfscf             1       0.320       0.320     0.91
timer:  overfsm           1       0.013       0.013     0.04
timer:  optical           1       0.000       0.000     0.00
  

elaps: ELAPSED times:
elaps:  Routine       Calls   Time/call    Tot.time        %
elaps:  siesta            1      35.298      35.298   100.00
elaps:  Setup             1       0.077       0.077     0.22
elaps:  bands             1       0.000       0.000     0.00
elaps:  writewave         1       0.001       0.001     0.00
elaps:  KSV_init          1       0.000       0.000     0.00
elaps:  IterMD            1      34.968      34.968    99.07
elaps:  hsparse           1       0.008       0.008     0.02
elaps:  overlap           1       0.119       0.119     0.34
elaps:  IterSCF          55       0.616      33.890    96.01
elaps:  kinefsm           2       0.064       0.128     0.36
elaps:  nlefsm            2       0.301       0.602     1.71
elaps:  DHSCF            57       0.439      24.998    70.82
elaps:  DHSCF1            1       0.020       0.020     0.06
elaps:  DHSCF2            1       0.280       0.280     0.79
elaps:  REORD           348       0.000       0.018     0.05
elaps:  POISON           58       0.003       0.187     0.53
elaps:  DHSCF3           57       0.427      24.348    68.98
elaps:  rhoofd           57       0.230      13.097    37.10
elaps:  cellXC           57       0.005       0.280     0.79
elaps:  vmat             56       0.192      10.747    30.45
elaps:  MolMec            2       0.000       0.000     0.00
elaps:  diagon           55       0.167       9.207    26.08
elaps:  c-eigval       2255       0.001       2.723     7.71
elaps:  c-buildHS      2255       0.001       1.732     4.91
elaps:  cdiag          4510       0.001       3.234     9.16
elaps:  cdiag1         4510       0.000       0.214     0.61
elaps:  cdiag2         4510       0.000       0.575     1.63
elaps:  cdiag3         4510       0.001       2.334     6.61
elaps:  cdiag4         4510       0.000       0.078     0.22
elaps:  c-eigvec       2255       0.002       3.993    11.31
elaps:  c-buildD       2255       0.001       2.420     6.86
elaps:  DHSCF4            1       0.347       0.347     0.98
elaps:  dfscf             1       0.320       0.320     0.91
elaps:  overfsm           1       0.013       0.013     0.04
elaps:  optical           1       0.000       0.000     0.00
  
>> End of run:  13-OCT-2015  14:52:56
