
#FDF: Opened INPUT_TMP.71086      for input. Unit: 12

fdf-debug              0     # Default value
SystemName     graphene                                                                                                                            
SystemLabel     graphene                                                                                                                            
XML.Write              T     # Default value
Write.XML              T     # Default value
XML.AbortOnErrors              F     # Default value
XML.AbortOnWarnings              F     # Default value
alloc_report_level              0     # Default value
xc.functional     LDA                                                                                                                                 
xc.authors     CA                                                                                                                                  
MM.Cutoff          30.00000000     Bohr     # Default value
MM.UnitsEnergy     eV     # Default value
MM.UnitsDistance     Ang     # Default value
WriteIonPlotFiles              F     # Default value
Atom.Debug.KB.Generation              F     # Default value
user-basis              F     # Default value
user-basis-netcdf              F     # Default value
ReparametrizePseudos              F     # Default value
Restricted.Radial.Grid              T     # Default value
Rmax.Radial.Grid          0.000000000         # Default value
PAO.BasisSize     DZP                                                                                                                                 
PAO.BasisType     split          # Default value
PAO.SoftDefault              F     # Default value
PAO.SoftInnerRadius         0.9000000000         # Default value
PAO.SoftPotential          40.00000000         # Default value
PAO.SplitNorm         0.1500000000         # Default value
PAO.SplitNormH         -1.000000000         # Default value
Number_of_species                        1

%block ChemicalSpeciesLabel                                                    
 1    6  C                                                                     
%endblock ChemicalSpeciesLabel                                                 

FilterCutoff          0.000000000     Ry     # Default value
FilterTol          0.000000000     Ry     # Default value
KB.Rmax          6.000000000     Bohr     # Default value
PAO.EnergyShift         0.2204939653E-02         Ry
# Above item originally: PAO.EnergyShift         0.3000000000E-01 eV        
PAO.SplitTailNorm              F     # Default value
PAO.FixSplitTable              F     # Default value
PAO.NewSplitCode              F     # Default value
PAO.Filter              F     # Default value
PAO.Keep.Findp.Bug              F     # Default value
PAO.Filter              F     # Default value
PAO.Filter              F     # Default value
PAO.Filter              F     # Default value
PAO.OldStylePolorbs              T     # Default value
PAO.SplitTailNorm              F     # Default value
PAO.FixSplitTable              F     # Default value
PAO.NewSplitCode              F     # Default value
PAO.Filter              F     # Default value
Vna.Filter              F     # Default value
PCC.Filter              F     # Default value
PAO.BasisType     split          # Default value
Atom-Setup-Only              F     # Default value
UseStructFile              F     # Default value
MD.UseStructFile              F     # Default value
LatticeConstant          4.677784560           Bohr
# Above item originally: LatticeConstant          2.475376000     Ang       

%block LatticeVectors                                                          
  1.732050808000     1.00000    0.000000                                       
  1.732050808000    -1.00000    0.000000                                       
  0.000              0.000000   1.000000                                       
%endblock LatticeVectors                                                       

AtomicCoordinatesFormat     Ang                                                                                                                                 
NumberOfAtoms                        5
ZM.UnitsLength     Bohr           # Default value
ZM.UnitsAngle     rad            # Default value
ZM.ForceTolLength         0.1555740000E-02 Ry/Bohr     # Default value
ZM.ForceTolAngle         0.3565490000E-02 Ry/rad     # Default value
ZM.MaxDisplLength         0.2000000000     Bohr     # Default value
ZM.MaxDisplAngle         0.3000000000E-02 rad     # Default value
ZM.CalcAllForces              F     # Default value

%block AtomicCoordinatesAndAtomicSpecies                                       
  0.000   0.000   0.000		1                                                     
  1.420   0.000   0.000		1                                                     
  2.130   1.229   0.000		1                                                     
  3.550   1.229   0.000		1                                                     
  4.260	  0.000	  0.000		1                                                     
%endblock AtomicCoordinatesAndAtomicSpecies                                    

UseSaveData              T
MD.UseSaveXV              T
MD.UseSaveZM              T     # Default value
WriteCoorInitial              T     # Default value
MD.InitialTimeStep              1     # Default value
MD.FinalTimeStep              1     # Default value
MD.TypeOfRun     CG                                                                                                                                  
MaxBondDistance          6.000000000     Bohr     # Default value
Output-Structure-Only              F     # Default value
SpinPolarized              F     # Default value
NonCollinearSpin              F     # Default value
LongOutput              F     # Default value
WriteDenchar              F     # Default value
WriteMullikenPop                        1
WriteHirshfeldPop              F     # Default value
WriteVoronoiPop              F     # Default value
PartialChargesAtEveryGeometry              F     # Default value
PartialChargesAtEveryScfStep              F     # Default value
MeshCutoff          200.0000000             Ry
# Above item originally: MeshCutoff          200.0000000     Ry        
NetCharge          0.000000000         # Default value
MaxSCFIterations                      300
SCFMustConverge              F     # Default value
DM.NumberPulay                        3
DM.NumberBroyden              0     # Default value
DM.FIRE.Mixing              F     # Default value
DM.MixSCF1              F     # Default value
DM.PulayOnFile              F     # Default value
DM.Pulay.Avoid.First.After.Kick              F     # Default value
DM.MixingWeight         0.4000000000E-01
DM.OccupancyTolerance         0.1000000000E-11     # Default value
DM.NumberKick              0     # Default value
DM.KickMixingWeight         0.5000000000         # Default value
DM.Tolerance         0.1000000000E-03
DM.RequireEnergyConvergence              F     # Default value
DM.EnergyTolerance         0.7349806700E-05 Ry     # Default value
DM.RequireHarrisConvergence              F     # Default value
DM.HarrisTolerance         0.7349806700E-05 Ry     # Default value
UseSaveData              T
DM.UseSaveDM              T
NeglNonOverlapInt              F     # Default value
SolutionMethod     diagon                                                                                                                              
Diag.DivideAndConquer              T     # Default value
Diag.Memory          1.000000000         # Default value
ElectronicTemperature         0.3674899422E-02         Ry
# Above item originally: ElectronicTemperature          50.00000000     meV       
FixSpin              F     # Default value
ON.MaxNumIter           1000     # Default value
ON.etol         0.1000000000E-07     # Default value
ON.eta          0.000000000     Ry     # Default value
ON.eta_alpha          0.000000000     Ry     # Default value
ON.eta_beta          0.000000000     Ry     # Default value
On.RcLWF          9.500000000     Bohr     # Default value
ON.UseSaveLWF              T     # Default value
ON.functional     kim     # Default value
ON.ChemicalPotentialUse              F     # Default value
ON.ChemicalPotential              F     # Default value
ON.ChemicalPotentialRc          9.500000000     Bohr     # Default value
ON.ChemicalPotentialTemperature         0.5000000000E-01 Ry     # Default value
ON.ChemicalPotentialOrder            100     # Default value
MD.VariableCell              F     # Default value
MD.TypeOfRun     CG                                                                                                                                  
MD.UseSaveCG              T
Optim.Broyden              F     # Default value
MD.NumCGsteps                        0
MD.MaxCGDispl         0.2000000000     Bohr     # Default value
MD.MaxForceTol         0.3889348769E-03    Ry/Bohr
# Above item originally: MD.MaxForceTol         0.1000000000E-01 eV/Ang    
MD.MaxStressTol         0.6797730000E-04 Ry/Bohr**3     # Default value
MD.InitialTimeStep              1     # Default value
MD.FinalTimeStep              1     # Default value
MD.LengthTimeStep          1.000000000     fs     # Default value
MD.Quench              F     # Default value
MD.FireQuench              F     # Default value
MD.InitialTemperature          0.000000000     K     # Default value
MD.TargetTemperature          0.000000000     K     # Default value
MD.TargetPressure          0.000000000     Ry/Bohr**3     # Default value
MD.NoseMass          100.0000000     Ry*fs**2     # Default value
MD.ParrinelloRahmanMass          100.0000000     Ry*fs**2     # Default value
MD.AnnealOption     TemperatureAndPressure     # Default value
MD.TauRelax          100.0000000     fs     # Default value
MD.BulkModulus         0.6797730000E-02 Ry/Bohr**3     # Default value
MD.FCDispl         0.4000000000E-01 Bohr     # Default value
MD.FCfirst              1     # Default value
MD.FClast              5     # Default value
UseSpatialDecomposition              F     # Default value
UseDomainDecomposition              F     # Default value
Harris_functional              F     # Default value
WriteKpoints              F     # Default value
WriteForces              F     # Default value
WriteDM              T     # Default value
WriteDM.NetCDF              T     # Default value
WriteDM.History.NetCDF              F     # Default value
WriteDMHS.NetCDF              T     # Default value
WriteDMHS.History.NetCDF              F     # Default value
SCF.Read.Charge.NetCDF              F     # Default value
SCF.Read.Deformation.Charge.NetCDF              F     # Default value
SaveInitialChargeDensity              F     # Default value
UseNewDiagk              F     # Default value
WriteBands              T
WriteKbands              F     # Default value
WriteEigenvalues              T
WriteCoorStep              F     # Default value
WriteMDhistory              F     # Default value
WriteMDXmol              T
UseSaveData              T
SaveHS              F
FixAuxiliaryCell              F     # Default value
NaiveAuxiliaryCell              F     # Default value
ReInitialiseDM              T     # Default value
DM.AllowReuse              T     # Default value
DM.AllowExtrapolation              T     # Default value
MullikenInSCF              F     # Default value
WarningMinimumAtomicDistance          1.000000000     Bohr     # Default value
BornCharge              F     # Default value
ChangeKgridInMD              F     # Default value
Diag.ParallelOverK              F     # Default value
MD.RelaxCellOnly              F     # Default value
MD.RemoveIntraMolecularPressure              F     # Default value
COOP.Write              F     # Default value
SaveRho              T
SaveDeltaRho              T
SaveElectrostaticPotential              F
SaveNeutralAtomPotential              F     # Default value
SaveTotalPotential              F
SaveIonicCharge              F     # Default value
SaveBaderCharge              F     # Default value
SaveTotalCharge              F     # Default value
RcSpatial          0.000000000     Bohr     # Default value
ProcessorGridX              1     # Default value
ProcessorGridY              1     # Default value
ProcessorGridZ              1     # Default value
processorY              1     # Default value
blocksize             24     # Default value
NumberOfEigenStates             65     # Default value
TimeReversalSymmetryForKpoints              T     # Default value

%block kgrid_Monkhorst_Pack                                                    
 15   0    0     0.0                                                           
 0    15   0     0.0                                                           
 0    0    1     0.0                                                           
%endblock kgrid_Monkhorst_Pack                                                 


%block ProjectedDensityOfStates                                                
-10.00 3.00  0.10 2000 eV                                                      
%endblock ProjectedDensityOfStates                                             

TimeReversalSymmetryForKpoints              T     # Default value

%block PDOS.kgrid_Monkhorst_Pack                                               
    150    0     0     0.0                                                     
    0    150     0     0.0                                                     
    0      0     1     0.0                                                     
%endblock PDOS.kgrid_Monkhorst_Pack                                            

BandLines
LatticeConstant          4.677784560           Bohr
# Above item originally: LatticeConstant          2.475376000     Ang       
BandLinesScale     pi/a     # Default value

%block BandLines                                                               
1      1.155   0.667   0.000    K      # 75 point from gamma to X              
150    0.000   0.000   0.000    \Gamma # Beguin at gamma                       
130    1.155   0.000   0.000    M                                              
75     1.155   0.667   0.000    K      # 75 point from gamma to X              
150    0.000   0.000   0.000    \Gamma # Beguin at gamma                       
%endblock BandLines                                                            

BandLines
LatticeConstant          4.677784560           Bohr
# Above item originally: LatticeConstant          2.475376000     Ang       
BandLinesScale     pi/a     # Default value

%block BandLines                                                               
1      1.155   0.667   0.000    K      # 75 point from gamma to X              
150    0.000   0.000   0.000    \Gamma # Beguin at gamma                       
130    1.155   0.000   0.000    M                                              
75     1.155   0.667   0.000    K      # 75 point from gamma to X              
150    0.000   0.000   0.000    \Gamma # Beguin at gamma                       
%endblock BandLines                                                            

WFS.EnergyMin        -0.1797693135+309 Ry     # Default value
WFS.EnergyMax         0.1797693135+309 Ry     # Default value
LongOutput              F     # Default value
WriteWaveFunctions              F     # Default value
WriteWaveDebug              F     # Default value
ForceAuxCell              F     # Default value
AtomicCoordinatesFormat     Ang                                                                                                                                 
AtomCoorFormatOut     Ang                                                                                                                                 
LatticeConstant          4.677784560           Bohr
# Above item originally: LatticeConstant          2.475376000     Ang       
DM.FormattedFiles              F     # Default value
DM.FormattedInput              F     # Default value
DM.FormattedOutput              F     # Default value
Harris_functional              F     # Default value
MeshSubDivisions              2     # Default value
