Siesta Version:                                        siesta-3.2-pl-5
Architecture  : x86_64-unknown-linux-gnu--unknown
Compiler flags: mpif90 -g -O2
PARALLEL version

* Running on    3 nodes in parallel
>> Start of run:  24-SEP-2015  15:50:44

                           ***********************       
                           *  WELCOME TO SIESTA  *       
                           ***********************       

reinit: Reading from standard input
************************** Dump of input data file ****************************
SystemName    graphene
SystemLabel   graphene
# ============= Atomic informations ===============
NumberOfAtoms        4
NumberOfSpecies      1
%block ChemicalSpeciesLabel
 1    6  C
%endblock ChemicalSpeciesLabel
# ======== lattice, cell and coordinates ==========
# === lattice constant ===
LatticeConstant   2.475376 Ang
#====== Lattice Vectors - Simulation box ======
%block LatticeVectors
  1.732050808000     1.00000    0.000000
  0.866025403784    -0.50000    0.000000
  0.000              0.000000   6.05968547808
%endblock LatticeVectors
# === Coordinates and formats (input and output) ===
AtomicCoordinatesFormat Ang
AtomCoorFormatOut  Ang
%block AtomicCoordinatesAndAtomicSpecies
  0.000   0.000   6.000    1
  1.420   0.000   6.000    1
  2.130   1.229   6.000	1
  3.550   1.229   6.000	1
%endblock AtomicCoordinatesAndAtomicSpecies
# ============== kspace Grid and cutoff =============
%block kgrid_Monkhorst_Pack
 15   0    0     0.0
 0    15   0     0.0
 0    0    1     0.0
%endblock kgrid_Monkhorst_Pack
MeshCutoff   200  Ry
# ============== Block to create supercells  =============
#%blockSuperCell
# 1   0   0
# 1   1   0
# 0   0   9
#%endblockSuperCell
#==== hold some atoms in the CG relaxation ====
#%block GeometryConstraints
#position from  1 to  180
#%endblock GeometryConstraints
#============== General variables ===================
#= Basis =
PAO.BasisSize     DZP
PAO.EnergyShift   0.03 eV
#============== MD variables =====================
# Type of Run              MD, FC, CG
# SCF  calculation         MD.NumCGsteps     0
# Structure relaxation     MD.NumCGsteps     600
#=================================================
MD.TypeOfRun      CG
MD.NumCGsteps     0
MD.MaxForceTol    0.01  eV/Ang
#=================== SCF variables ========================
# SCF max number of iterations - single point calculation.
# Mixing - 0.1 means 10 percent of the previous density.
# Pulay - how many densities will be considered.
# Tolerance - criteria to stop
# =========================================================
MaxSCFIterations      300
DM.MixingWeight       0.04
DM.NumberPulay        3
DM.Tolerance           1.d-4
#== Functional ==
XC.functional       LDA
XC.authors          CA
#======== Solution method =====================
# diagon, order-N or transiesta (transiesta)
#----------------------------------------------
# If the system is periodic and has many kpt
# ParallelOverK    .true.
#==============================================
SolutionMethod  diagon
#====================== Electronic temperature (FD or MP) ====================
#=============== determines the occupation of the electronic states ==========
#=============================================================================
OccupationFunction     FD
ElectronicTemperature  50 meV
#=============== Write ================
WriteMullikenPop                1
WriteBands                      T
SaveRho                         T
SaveDeltaRho                    T
SaveHS                          .false.
SaveElectrostaticPotential      .false.
SaveTotalPotential              no
WriteCoorXmol                   .true.
WriteMDXmol                     .true.
#WriteMDhistory                  .false.
WriteEigenvalues                yes
#============== Automatic Cell relaxation ==============
#MD.VariableCell   .true.
#========== bands, dos and pdos ====================
%block ProjectedDensityOfStates
-10.00 3.00  0.10 2000 eV
%endblock ProjectedDensityOfStates
%block PDOS.kgrid_Monkhorst_Pack
    150    0     0     0.0
    0    150     0     0.0
    0      0     1     0.0
%endblock PDOS.kgrid_Monkhorst_Pack
BandLineScale  pi/a
%block BandLines
1      1.155   0.667   0.000    K      # 75 point from gamma to X
150    0.000   0.000   0.000    \Gamma # Beguin at gamma
130    1.155   0.000   0.000    M
75     1.155   0.667   0.000    K      # 75 point from gamma to X
150    0.000   0.000   0.000    \Gamma # Beguin at gamma
%endblock BandLines
#========= Reestart the calculation ===============
# XV - coordinates
# DM - density matrix
# CG - last conjugated gradiend step
#==================================================
UseSaveData           .true.
MD.UseSaveXV          .true.
DM.UseSaveDM          .true.
MD.UseSaveCG          .true.
WriteCoorXmol                   .true.
************************** End of input data file *****************************

reinit: -----------------------------------------------------------------------
reinit: System Name: graphene
reinit: -----------------------------------------------------------------------
reinit: System Label: graphene                                                    
reinit: -----------------------------------------------------------------------

initatom: Reading input for the pseudopotentials and atomic orbitals ----------
 Species number:            1  Label: C Atomic number:           6
Ground state valence configuration:   2s02  2p02
Reading pseudopotential information in formatted form from C.psf

Valence configuration for pseudopotential generation:
2s( 2.00) rc: 1.25
2p( 2.00) rc: 1.25
3d( 0.00) rc: 1.25
4f( 0.00) rc: 1.25
For C, standard SIESTA heuristics set lmxkb to 3
 (one more than the basis l, including polarization orbitals).
Use PS.lmax or PS.KBprojectors blocks to override.

<basis_specs>
===============================================================================
C                    Z=   6    Mass=  12.010        Charge= 0.17977+309
Lmxo=1 Lmxkb= 3    BasisType=split      Semic=F
L=0  Nsemic=0  Cnfigmx=2
          n=1  nzeta=2  polorb=0
            splnorm:   0.15000    
               vcte:    0.0000    
               rinn:    0.0000    
                rcs:    0.0000      0.0000    
            lambdas:    1.0000      1.0000    
L=1  Nsemic=0  Cnfigmx=2
          n=1  nzeta=2  polorb=1
            splnorm:   0.15000    
               vcte:    0.0000    
               rinn:    0.0000    
                rcs:    0.0000      0.0000    
            lambdas:    1.0000      1.0000    
-------------------------------------------------------------------------------
L=0  Nkbl=1  erefs: 0.17977+309
L=1  Nkbl=1  erefs: 0.17977+309
L=2  Nkbl=1  erefs: 0.17977+309
L=3  Nkbl=1  erefs: 0.17977+309
===============================================================================
</basis_specs>

atom: Called for C                     (Z =   6)

read_vps: Pseudopotential generation method:
read_vps: ATM3      Troullier-Martins                       
Total valence charge:    4.00000

read_vps: Pseudopotential includes a core correction:
read_vps: Pseudo-core for xc-correction

xc_check: Exchange-correlation functional:
xc_check: Ceperley-Alder
xc_check: WARNING: Pseudopotential generated with GGA Perdew, Burke & Ernzerhof 1996 functional
V l=0 = -2*Zval/r beyond r=  1.3270
V l=1 = -2*Zval/r beyond r=  1.3270
V l=2 = -2*Zval/r beyond r=  1.3270
V l=3 = -2*Zval/r beyond r=  1.3270
All V_l potentials equal beyond r=  1.2311
This should be close to max(r_c) in ps generation
All pots = -2*Zval/r beyond r=  1.3270

VLOCAL1: 99.0% of the norm of Vloc inside     28.641 Ry
VLOCAL1: 99.9% of the norm of Vloc inside     65.273 Ry
atom: Maximum radius for 4*pi*r*r*local-pseudopot. charge    1.48507
atom: Maximum radius for r*vlocal+2*Zval:    1.27815
GHOST: No ghost state for L =  0
GHOST: No ghost state for L =  1
GHOST: No ghost state for L =  2
GHOST: No ghost state for L =  3

KBgen: Kleinman-Bylander projectors: 
   l= 0   rc=  1.466618   el= -0.993243   Ekb=  7.919456   kbcos=  0.278713
   l= 1   rc=  1.485071   el= -0.377706   Ekb= -4.691706   kbcos= -0.274355
   l= 2   rc=  1.641300   el=  0.002326   Ekb= -1.224148   kbcos= -0.005036
   l= 3   rc=  1.747182   el=  0.003420   Ekb= -0.477402   kbcos= -0.000509

KBgen: Total number of  Kleinman-Bylander projectors:   16
atom: -------------------------------------------------------------------------

atom: SANKEY-TYPE ORBITALS:
atom: Selected multiple-zeta basis: split     

SPLIT: Orbitals with angular momentum L= 0

SPLIT: Basis orbitals for state 2s

SPLIT: PAO cut-off radius determined from an
SPLIT: energy shift=  0.002205 Ry

   izeta = 1
                 lambda =    1.000000
                     rc =    5.382558
                 energy =   -0.991266
                kinetic =    0.848090
    potential(screened) =   -1.839356
       potential(ionic) =   -5.389969

   izeta = 2
                 rmatch =    3.518811
              splitnorm =    0.150000
                 energy =   -0.876517
                kinetic =    1.289828
    potential(screened) =   -2.166345
       potential(ionic) =   -5.963401

SPLIT: Orbitals with angular momentum L= 1

SPLIT: Basis orbitals for state 2p

SPLIT: PAO cut-off radius determined from an
SPLIT: energy shift=  0.002205 Ry

   izeta = 1
                 lambda =    1.000000
                     rc =    6.740804
                 energy =   -0.375521
                kinetic =    2.326421
    potential(screened) =   -2.701942
       potential(ionic) =   -6.085463

   izeta = 2
                 rmatch =    3.840617
              splitnorm =    0.150000
                 energy =   -0.259623
                kinetic =    3.462988
    potential(screened) =   -3.722611
       potential(ionic) =   -7.510262

POLgen: Perturbative polarization orbital with L=  2

POLgen: Polarization orbital for state 2p

   izeta = 1
                     rc =    6.740804
                 energy =    0.936005
                kinetic =    1.965355
    potential(screened) =   -1.029351
       potential(ionic) =   -3.693090
atom: Total number of Sankey-type orbitals: 13

atm_pop: Valence configuration (for local Pseudopot. screening):
 2s( 2.00)                                                            
 2p( 2.00)                                                            
Vna: chval, zval:    4.00000   4.00000

Vna:  Cut-off radius for the neutral-atom potential:   6.740804
comcore: Pseudo-core radius Rcore=  1.791422

atom: _________________________________________________________________________

prinput: Basis input ----------------------------------------------------------

PAO.BasisType split     

%block ChemicalSpeciesLabel
    1    6 C                       # Species index, atomic number, species label
%endblock ChemicalSpeciesLabel

%block PAO.Basis                 # Define Basis set
C                     2                    # Species label, number of l-shells
 n=2   0   2                         # n, l, Nzeta 
   5.383      3.519   
   1.000      1.000   
 n=2   1   2 P   1                   # n, l, Nzeta, Polarization, NzetaPol
   6.741      3.841   
   1.000      1.000   
%endblock PAO.Basis

prinput: ----------------------------------------------------------------------

coor:   Atomic-coordinates input format  =     Cartesian coordinates
coor:                                          (in Angstroms)

ioxv: Reading coordinates and velocities from file
! Info in XV file prevails over previous structure input

siesta: Atomic coordinates (Bohr) and species
siesta:     -0.01595  -0.00856  11.33834  1        1
siesta:      2.68683  -0.00965  11.33836  1        2
siesta:      4.02207   2.33205  11.33835  1        3
siesta:      6.72458   2.33109  11.33835  1        4

siesta: System type = slab      

initatomlists: Number of atoms, orbitals, and projectors:      4    52    64

siesta: ******************** Simulation parameters ****************************
siesta:
siesta: The following are some of the parameters of the simulation.
siesta: A complete list of the parameters used, including default values,
siesta: can be found in file out.fdf
siesta:
redata: Non-Collinear-spin run           =     F
redata: SpinPolarized (Up/Down) run      =     F
redata: Number of spin components        =     1
redata: Long output                      =     F
redata: Number of Atomic Species         =        1
redata: Charge density info will appear in .RHO file
redata: Write Mulliken Pop.              =     Atomic and Orbital charges
redata: Mesh Cutoff                      =   200.0000  Ry
redata: Net charge of the system         =     0.0000 |e|
redata: Max. number of SCF Iter          =      300
redata: Performing Pulay mixing using    =     3 iterations
redata: Mix DM in first SCF step ?       =     F
redata: Write Pulay info on disk?        =     F
redata: Discard 1st Pulay DM after  kick =     F
redata: New DM Mixing Weight             =     0.0400
redata: New DM Occupancy tolerance       = 0.000000000001
redata: No kicks to SCF
redata: DM Mixing Weight for Kicks       =     0.5000
redata: DM Tolerance for SCF             =     0.000100
redata: Require Energy convergence for SCF =     F
redata: DM Energy tolerance for SCF      =     0.000100 eV
redata: Require Harris convergence for SCF =     F
redata: DM Harris energy tolerance for SCF =     0.000100 eV
redata: Using Saved Data (generic)   =     T
redata: Use continuation files for DM    =     T
redata: Neglect nonoverlap interactions  =     F
redata: Method of Calculation            =     Diagonalization
redata: Divide and Conquer               =     T
redata: Electronic Temperature           =     0.0037  Ry
redata: Fix the spin of the system       =     F
redata: Dynamics option                  =     CG coord. optimization
redata: Variable cell                    =     F
redata: Use continuation files for CG    =     T
redata: Max atomic displ per move        =     0.2000  Bohr
redata: Maximum number of CG moves       =        0
redata: Force tolerance                  =     0.0004  Ry/Bohr
redata: ***********************************************************************
Total number of electrons:    16.000000
Total ionic charge:    16.000000

* ProcessorY, Blocksize:    1  18

 Kpoints in:          120 . Kpoints trimmed:          113

siesta: k-grid: Number of k-points =   113
siesta: k-grid: Cutoff (effective) =     7.500 Ang
siesta: k-grid: Supercell and displacements
siesta: k-grid:   15   0   0      0.000
siesta: k-grid:    0  15   0      0.000
siesta: k-grid:    0   0   1      0.000
k-point displ. along   1 input, could be:     0.00    0.50
k-point displ. along   2 input, could be:     0.00    0.50
 Kpoints in:        11400 . Kpoints trimmed:        11326

siesta: PDOS.k-grid: Number of k-points = 11326
siesta: PDOS.k-grid: Cutoff (effective) =     7.500 Ang
siesta: PDOS.k-grid: Supercell and displacements
siesta: PDOS.k-grid:  150   0   0      0.000
siesta: PDOS.k-grid:    0 150   0      0.000
siesta: PDOS.k-grid:    0   0   1      0.000
Naive supercell factors:     4    8    2

superc: Internal auxiliary supercell:     4 x     8 x     2  =      64
superc: Number of atoms, orbitals, and projectors:    256   3328   4096

* Maximum dynamic memory allocated =     1 MB

siesta:                 ==============================
                            Begin CG move =      0
                        ==============================

superc: Internal auxiliary supercell:     4 x     8 x     2  =      64
superc: Number of atoms, orbitals, and projectors:    256   3328   4096

outcell: Unit cell vectors (Ang):
        4.287477    2.475376    0.000000
        2.143738   -1.237688    0.000000
        0.000000    0.000000   15.000000

outcell: Cell vector modules (Ang)   :    4.950752    2.475376   15.000000
outcell: Cell angles (23,13,12) (deg):     90.0000     90.0000     60.0000
outcell: Cell volume (Ang**3)        :    159.1968
New_DM. Step:     1
Initializing Density Matrix...

iodm: Reading Density Matrix from files

InitMesh: MESH =    40 x    20 x   128 =      102400
InitMesh: Mesh cutoff (required, used) =   200.000   201.251 Ry

* Maximum dynamic memory allocated =    32 MB

stepf: Fermi-Dirac step function

siesta: Program's energy decomposition (eV):
siesta: Ebs     =      -227.634318
siesta: Eions   =      1264.537926
siesta: Ena     =       429.566997
siesta: Ekin    =       436.965972
siesta: Enl     =        -6.447858
siesta: DEna    =       -26.434847
siesta: DUscf   =         1.949329
siesta: DUext   =         0.000000
siesta: Exc     =      -192.469559
siesta: eta*DQ  =         0.000000
siesta: Emadel  =         0.000000
siesta: Emeta   =         0.000000
siesta: Emolmec =         0.000000
siesta: Ekinion =         0.000000
siesta: Eharris =      -621.408199
siesta: Etot    =      -621.407891
siesta: FreeEng =      -621.407891

siesta: iscf   Eharris(eV)      E_KS(eV)   FreeEng(eV)   dDmax  Ef(eV)
siesta:    1     -621.4082     -621.4079     -621.4079  0.0000 -5.0828
timer: Routine,Calls,Time,% = IterSCF        1      30.574  55.69
elaps: Routine,Calls,Wall,% = IterSCF        1      23.397  56.12

siesta: E_KS(eV) =             -621.4082

siesta: E_KS - E_eggbox =      -621.4082

siesta: Atomic forces (eV/Ang):
----------------------------------------
   Tot    0.034726    0.002551   -0.001792
----------------------------------------
   Max    0.163560
   Res    0.083323    sqrt( Sum f_i^2 / 3N )
----------------------------------------
   Max    0.163560    constrained

Stress-tensor-Voigt (kbar):      -24.02      -24.32        0.01        0.33       -0.00       -0.02
(Free)E + p*V (eV/cell)     -619.8089
Target enthalpy (eV/cell)     -621.4094

mulliken: Mulliken Atomic and Orbital Populations:

Species: C                   
Atom  Qatom  Qorb
               2s      2s      2py     2pz     2px     2py     2pz     2px     
               2Pdxy   2Pdyz   2Pdz2   2Pdxz   2Pdx2-y2
   1  4.000   0.562   0.495   0.493   0.548   0.493   0.425   0.361   0.426
              0.049   0.045   0.006   0.045   0.049
   2  4.000   0.558   0.498   0.489   0.546   0.491   0.430   0.364   0.428
              0.050   0.045   0.006   0.045   0.050
   3  4.002   0.562   0.494   0.493   0.546   0.496   0.427   0.364   0.425
              0.049   0.045   0.006   0.045   0.050
   4  3.998   0.558   0.498   0.489   0.549   0.489   0.429   0.361   0.429
              0.050   0.045   0.006   0.045   0.050

mulliken: Qtot =       16.000

* Maximum dynamic memory allocated =    33 MB

coxmol: Writing XMOL coordinates into file graphene.xyz                                                    
Computing bands...

siesta: Band energies (eV):
  ik is    eps
   1  1 -22.61 -17.67 -17.67 -15.67 -12.88 -11.54 -10.37  -5.09  -5.08   1.28
          4.07   4.97   6.35   6.61   6.88   8.38   8.41   9.60  12.16  14.40
         14.41  15.42  15.44  16.78  19.32  20.18  23.55  23.68  25.22  29.28
         39.51  39.52  41.81  44.34  45.07  45.07  54.29  54.32  58.79  60.01
         62.49  62.61  71.08  78.62  87.86  88.90 107.43 129.44 130.86 139.55
        139.64 171.80
   2  1 -22.63 -17.72 -17.62 -15.67 -12.85 -11.51 -10.40  -5.15  -5.02   1.33
          4.03   4.94   6.33   6.61   6.86   8.38   8.40   9.61  12.10  14.33
         14.48  15.40  15.47  16.86  19.32  20.22  23.64  23.73  25.22  29.30
         39.38  39.65  41.79  44.32  45.14  45.37  54.28  54.33  58.60  60.04
         62.28  62.81  71.04  78.62  87.78  88.73 107.42 129.44 130.72 138.73
        140.45 171.62
   3  1 -22.66 -17.77 -17.58 -15.67 -12.81 -11.47 -10.42  -5.21  -4.96   1.38
          3.99   4.90   6.34   6.62   6.84   8.36   8.41   9.61  12.04  14.26
         14.55  15.38  15.49  16.95  19.32  20.26  23.75  23.77  25.22  29.32
         39.25  39.78  41.77  44.27  45.23  45.66  54.25  54.33  58.42  60.07
         61.95  63.13  70.99  78.61  87.66  88.59 107.42 129.44 130.54 137.81
        141.35 171.38
   4  1 -22.68 -17.82 -17.53 -15.66 -12.78 -11.43 -10.45  -5.27  -4.89   1.42
          3.96   4.85   6.35   6.62   6.83   8.34   8.41   9.61  11.98  14.19
         14.63  15.36  15.52  17.04  19.32  20.30  23.81  23.86  25.23  29.35
         39.12  39.91  41.76  44.20  45.35  45.94  54.21  54.33  58.24  60.09
         61.62  63.45  70.94  78.59  87.48  88.48 107.41 129.45 130.31 136.86
        142.26 171.08
   5  1 -22.70 -17.88 -17.49 -15.64 -12.75 -11.38 -10.48  -5.34  -4.83   1.47
          3.92   4.79   6.37   6.63   6.81   8.32   8.41   9.61  11.92  14.12
         14.71  15.35  15.55  17.12  19.32  20.33  23.83  23.97  25.25  29.39
         38.99  40.04  41.77  44.13  45.47  46.22  54.15  54.32  58.05  60.10
         61.28  63.77  70.88  78.56  87.26  88.39 107.39 129.46 130.04 135.87
        143.18 170.72
   6  1 -22.72 -17.94 -17.44 -15.62 -12.73 -11.34 -10.50  -5.40  -4.76   1.51
          3.88   4.74   6.40   6.64   6.80   8.30   8.40   9.61  11.86  14.05
         14.79  15.34  15.58  17.22  19.32  20.36  23.85  24.10  25.26  29.44
         38.87  40.16  41.77  44.05  45.61  46.48  54.08  54.30  57.87  60.11
         60.94  64.10  70.82  78.52  87.01  88.32 107.37 129.47 129.74 134.84
        144.12 170.31
   7  1 -22.75 -18.00 -17.39 -15.60 -12.70 -11.29 -10.53  -5.47  -4.70   1.55
          3.83   4.67   6.44   6.65   6.79   8.28   8.38   9.61  11.79  13.98
         14.87  15.35  15.61  17.31  19.32  20.39  23.86  24.24  25.28  29.49
         38.75  40.28  41.79  43.97  45.74  46.73  53.99  54.28  57.69  60.11
         60.61  64.42  70.75  78.47  86.72  88.25 107.34 129.34 129.53 133.80
        145.07 169.83
   8  1 -22.77 -18.06 -17.35 -15.58 -12.69 -11.24 -10.55  -5.54  -4.63   1.59
          3.79   4.61   6.48   6.67   6.77   8.25   8.36   9.61  11.73  13.91
         14.95  15.35  15.63  17.40  19.31  20.42  23.86  24.38  25.31  29.56
         38.63  40.40  41.81  43.90  45.88  46.97  53.89  54.25  57.50  60.09
         60.30  64.74  70.67  78.41  86.41  88.18 107.31 128.96 129.55 132.72
        146.03 169.31
   9  1 -22.79 -18.13 -17.30 -15.55 -12.67 -11.19 -10.58  -5.61  -4.57   1.63
          3.75   4.54   6.53   6.68   6.76   8.23   8.33   9.60  11.66  13.84
         15.04  15.36  15.66  17.50  19.31  20.44  23.86  24.53  25.33  29.63
         38.51  40.52  41.84  43.82  46.02  47.20  53.77  54.22  57.32  59.91
         60.15  65.06  70.59  78.34  86.07  88.12 107.28 128.54 129.59 131.63
        146.99 168.72
  10  1 -22.81 -18.19 -17.25 -15.52 -12.65 -11.14 -10.60  -5.67  -4.50   1.67
          3.71   4.48   6.59   6.70   6.75   8.21   8.30   9.59  11.60  13.77
         15.12  15.38  15.69  17.59  19.31  20.47  23.85  24.69  25.36  29.73
         38.39  40.64  41.88  43.75  46.16  47.42  53.64  54.16  57.14  59.61
         60.12  65.37  70.51  78.26  85.69  88.04 107.23 128.08 129.64 130.52
        147.95 168.09
  11  1 -22.83 -18.26 -17.20 -15.48 -12.64 -11.09 -10.62  -5.74  -4.43   1.70
          3.66   4.42   6.64   6.72   6.74   8.18   8.27   9.58  11.53  13.71
         15.21  15.40  15.71  17.69  19.31  20.49  23.82  24.84  25.40  29.83
         38.28  40.75  41.92  43.68  46.29  47.63  53.50  54.10  56.96  59.31
         60.09  65.69  70.43  78.18  85.29  87.97 107.18 127.59 129.39 129.70
        148.92 167.41
  12  1 -22.84 -18.33 -17.15 -15.45 -12.63 -11.04 -10.64  -5.81  -4.36   1.74
          3.62   4.35   6.70   6.73   6.75   8.16   8.23   9.56  11.47  13.64
         15.30  15.42  15.73  17.79  19.31  20.50  23.79  25.01  25.43  29.96
         38.17  40.86  41.97  43.61  46.43  47.82  53.34  54.02  56.78  59.02
         60.06  66.00  70.34  78.08  84.85  87.89 107.13 127.09 128.25 129.76
        149.89 166.68
  13  1 -22.86 -18.40 -17.10 -15.41 -12.62 -10.99 -10.66  -5.88  -4.29   1.77
          3.57   4.29   6.72   6.76   6.77   8.14   8.20   9.54  11.40  13.58
         15.38  15.46  15.76  17.89  19.31  20.52  23.76  25.17  25.47  30.10
         38.07  40.97  42.03  43.55  46.57  48.01  53.18  53.92  56.59  58.76
         60.02  66.31  70.24  77.98  84.38  87.81 107.07 126.57 127.10 129.84
        150.86 165.91
  14  1 -22.88 -18.48 -17.05 -15.37 -12.61 -10.94 -10.68  -5.96  -4.22   1.80
          3.52   4.24   6.71   6.79   6.83   8.11   8.15   9.52  11.33  13.52
         15.48  15.49  15.78  17.99  19.31  20.53  23.72  25.33  25.52  30.27
         37.96  41.07  42.09  43.48  46.71  48.18  53.00  53.80  56.41  58.52
         59.98  66.62  70.15  77.86  83.86  87.72 107.00 125.95 126.05 129.91
        151.83 165.10
  15  1 -22.90 -18.55 -17.00 -15.33 -12.60 -10.88 -10.70  -6.03  -4.15   1.83
          3.47   4.18   6.70   6.82   6.89   8.09   8.11   9.49  11.26  13.46
         15.53  15.57  15.80  18.10  19.31  20.55  23.67  25.49  25.56  30.46
         37.86  41.17  42.16  43.43  46.84  48.34  52.81  53.66  56.24  58.30
         59.91  66.92  70.05  77.74  83.30  87.64 106.92 124.79 125.52 130.00
        152.79 164.26
  16  1 -22.91 -18.62 -16.94 -15.29 -12.59 -10.83 -10.72  -6.10  -4.08   1.86
          3.42   4.13   6.69   6.85   6.96   8.06   8.07   9.46  11.19  13.40
         15.57  15.66  15.82  18.20  19.31  20.56  23.61  25.62  25.64  30.68
         37.76  41.27  42.23  43.37  46.97  48.49  52.61  53.50  56.06  58.11
         59.84  67.22  69.95  77.60  82.70  87.55 106.84 123.63 125.00 130.09
        153.74 163.39
  17  1 -22.93 -18.70 -16.89 -15.25 -12.59 -10.78 -10.74  -6.17  -4.01   1.88
          3.38   4.08   6.69   6.88   7.02   8.02   8.04   9.42  11.12  13.34
         15.62  15.76  15.83  18.30  19.31  20.57  23.55  25.67  25.78  30.93
         37.67  41.36  42.31  43.32  47.10  48.63  52.40  53.31  55.88  57.94
         59.75  67.52  69.85  77.46  82.05  87.46 106.74 122.47 124.49 130.19
        154.69 162.50
  18  1 -22.94 -18.77 -16.84 -15.20 -12.58 -10.75 -10.74  -6.25  -3.93   1.91
          3.33   4.04   6.68   6.91   7.09   7.97   8.01   9.38  11.06  13.29
         15.67  15.85  15.86  18.41  19.31  20.57  23.48  25.73  25.92  31.22
         37.58  41.45  42.38  43.27  47.23  48.76  52.18  53.11  55.71  57.80
         59.64  67.81  69.75  77.31  81.36  87.37 106.64 121.31 123.99 130.29
        155.63 161.59
  19  1 -22.95 -18.85 -16.78 -15.16 -12.58 -10.77 -10.69  -6.32  -3.86   1.93
          3.28   4.00   6.67   6.94   7.16   7.92   7.99   9.34  10.99  13.23
         15.72  15.86  15.95  18.52  19.31  20.58  23.41  25.79  26.05  31.54
         37.49  41.54  42.47  43.22  47.35  48.88  51.96  52.89  55.54  57.68
         59.51  68.09  69.65  77.15  80.62  87.28 106.53 120.17 123.52 130.40
        156.56 160.68
  20  1 -22.97 -18.92 -16.73 -15.11 -12.58 -10.78 -10.64  -6.39  -3.79   1.96
          3.23   3.96   6.67   6.97   7.22   7.86   7.96   9.29  10.92  13.18
         15.78  15.88  16.06  18.63  19.32  20.59  23.33  25.85  26.17  31.89
         37.40  41.63  42.55  43.18  47.47  49.00  51.73  52.65  55.37  57.59
         59.36  68.37  69.55  76.98  79.84  87.19 106.42 119.02 123.08 130.51
        157.47 159.76
  21  1 -22.98 -19.00 -16.67 -15.06 -12.57 -10.80 -10.60  -6.47  -3.71   1.98
          3.18   3.92   6.66   7.01   7.29   7.81   7.94   9.24  10.85  13.13
         15.84  15.89  16.16  18.73  19.32  20.59  23.25  25.92  26.27  32.29
         37.32  41.71  42.63  43.14  47.58  49.10  51.49  52.40  55.20  57.52
         59.17  68.63  69.46  76.81  79.02  87.11 106.29 117.89 122.66 130.62
        158.29 158.93
  22  1 -22.99 -19.07 -16.62 -15.01 -12.57 -10.81 -10.56  -6.54  -3.63   2.00
          3.13   3.89   6.66   7.04   7.36   7.76   7.91   9.19  10.78  13.08
         15.89  15.90  16.26  18.84  19.33  20.60  23.17  25.98  26.37  32.72
         37.24  41.79  42.72  43.11  47.69  49.20  51.25  52.14  55.04  57.46
         58.96  68.88  69.38  76.62  78.18  87.03 106.16 116.78 122.28 130.74
        157.85 159.34
  23  1 -23.00 -19.15 -16.56 -14.96 -12.57 -10.83 -10.52  -6.62  -3.56   2.02
          3.08   3.86   6.65   7.07   7.42   7.70   7.89   9.13  10.72  13.04
         15.90  15.96  16.37  18.95  19.34  20.60  23.08  26.06  26.46  33.19
         37.16  41.87  42.80  43.08  47.80  49.28  51.00  51.87  54.88  57.42
         58.70  69.08  69.35  76.43  77.31  86.95 106.01 115.67 121.94 130.86
        156.96 160.20
  24  1 -23.01 -19.22 -16.51 -14.91 -12.57 -10.84 -10.48  -6.69  -3.48   2.03
          3.04   3.83   6.65   7.11   7.49   7.64   7.86   9.07  10.65  13.00
         15.90  16.02  16.48  19.06  19.35  20.61  22.99  26.13  26.54  33.70
         37.09  41.94  42.89  43.05  47.90  49.37  50.75  51.60  54.73  57.40
         58.41  69.10  69.49  76.22  76.44  86.87 105.86 114.59 121.63 130.98
        156.08 161.06
  25  1 -23.02 -19.30 -16.45 -14.85 -12.56 -10.85 -10.44  -6.77  -3.40   2.05
          3.00   3.81   6.64   7.14   7.55   7.59   7.83   9.00  10.59  12.96
         15.90  16.09  16.58  19.17  19.36  20.61  22.89  26.21  26.61  34.25
         37.02  42.01  42.97  43.03  48.00  49.44  50.49  51.33  54.58  57.39
         58.06  69.03  69.71  75.57  76.01  86.80 105.70 113.52 121.37 131.11
        155.22 161.90
  26  1 -23.03 -19.37 -16.39 -14.80 -12.56 -10.86 -10.41  -6.85  -3.32   2.06
          2.95   3.79   6.64   7.18   7.52   7.62   7.81   8.94  10.53  12.93
         15.90  16.16  16.70  19.28  19.37  20.61  22.80  26.29  26.67  34.83
         36.96  42.08  43.01  43.06  48.08  49.51  50.23  51.05  54.43  57.38
         57.65  68.95  69.94  74.71  75.79  86.74 105.53 112.46 121.13 131.23
        154.39 162.73
  27  1 -23.04 -19.45 -16.33 -14.75 -12.56 -10.87 -10.37  -6.92  -3.24   2.08
          2.92   3.77   6.64   7.21   7.47   7.68   7.78   8.87  10.47  12.89
         15.89  16.23  16.81  19.38  19.39  20.61  22.70  26.37  26.72  35.45
         36.90  42.14  43.00  43.14  48.17  49.57  49.97  50.78  54.30  57.18
         57.39  68.87  70.17  73.89  75.57  86.67 105.35 111.43 120.94 131.36
        153.60 163.53
  28  1 -23.04 -19.52 -16.27 -14.69 -12.56 -10.88 -10.34  -7.00  -3.16   2.09
          2.88   3.75   6.63   7.24   7.41   7.73   7.76   8.80  10.41  12.86
         15.89  16.30  16.92  19.40  19.50  20.62  22.61  26.45  26.77  36.10
         36.84  42.20  42.99  43.21  48.24  49.63  49.71  50.50  54.17  56.65
         57.40  68.80  70.39  73.11  75.33  86.62 105.16 110.42 120.77 131.49
        152.85 164.32
  29  1 -23.05 -19.60 -16.21 -14.64 -12.56 -10.89 -10.31  -7.07  -3.08   2.10
          2.85   3.73   6.63   7.28   7.34   7.73   7.80   8.73  10.35  12.84
         15.88  16.37  17.04  19.42  19.60  20.62  22.51  26.53  26.81  36.78
         36.79  42.26  43.00  43.28  48.31  49.45  49.68  50.23  54.04  56.05
         57.42  68.73  70.60  72.38  75.09  86.56 104.96 109.43 120.64 131.62
        152.14 165.09
  30  1 -23.06 -19.67 -16.15 -14.58 -12.56 -10.89 -10.29  -7.15  -3.00   2.11
          2.81   3.72   6.63   7.28   7.31   7.70   7.85   8.65  10.30  12.82
         15.86  16.44  17.16  19.44  19.70  20.62  22.41  26.62  26.84  36.74
         37.49  42.31  43.02  43.35  48.37  49.19  49.73  49.97  53.93  55.38
         57.44  68.66  70.80  71.72  74.84  86.52 104.75 108.46 120.54 131.74
        151.49 165.83
  31  1 -23.06 -19.75 -16.09 -14.52 -12.56 -10.90 -10.27  -7.23  -2.92   2.12
          2.79   3.70   6.63   7.22   7.34   7.67   7.90   8.57  10.25  12.80
         15.84  16.52  17.28  19.46  19.80  20.62  22.32  26.71  26.87  36.69
         38.21  42.36  43.05  43.41  48.41  48.93  49.71  49.78  53.82  54.66
         57.47  68.61  71.00  71.13  74.58  86.47 104.53 107.52 120.46 131.87
        150.89 166.55
  32  1 -23.07 -19.82 -16.03 -14.46 -12.56 -10.90 -10.25  -7.30  -2.84   2.13
          2.76   3.69   6.62   7.16   7.37   7.65   7.94   8.49  10.20  12.78
         15.82  16.59  17.40  19.49  19.90  20.62  22.23  26.80  26.90  36.65
         38.93  42.41  43.11  43.47  48.44  48.68  49.45  49.81  53.73  53.89
         57.50  68.56  70.62  71.19  74.32  86.44 104.31 106.60 120.39 131.99
        150.36 167.24
  33  1 -23.07 -19.90 -15.97 -14.41 -12.56 -10.91 -10.23  -7.38  -2.76   2.13
          2.74   3.68   6.62   7.09   7.40   7.62   7.98   8.41  10.16  12.78
         15.80  16.66  17.53  19.51  19.98  20.62  22.15  26.88  26.92  36.62
         39.62  42.45  43.21  43.52  48.41  48.47  49.20  49.85  53.09  53.64
         57.54  68.52  70.18  71.36  74.04  86.40 104.08 105.70 120.35 132.11
        149.90 167.91
  34  1 -23.08 -19.97 -15.91 -14.35 -12.56 -10.91 -10.22  -7.45  -2.67   2.14
          2.72   3.67   6.62   7.03   7.43   7.59   8.02   8.33  10.13  12.77
         15.77  16.74  17.65  19.54  20.06  20.62  22.07  26.92  26.99  36.59
         40.27  42.49  43.38  43.56  48.17  48.45  48.96  49.87  52.29  53.57
         57.58  68.49  69.82  71.53  73.77  86.38 103.83 104.83 120.32 132.23
        149.50 168.56
  35  1 -23.08 -20.04 -15.85 -14.29 -12.56 -10.92 -10.20  -7.53  -2.59   2.14
          2.71   3.67   6.62   6.97   7.45   7.56   8.05   8.25  10.10  12.77
         15.74  16.82  17.78  19.58  20.13  20.62  22.00  26.94  27.08  36.56
         40.80  42.53  43.59  43.63  47.92  48.41  48.72  49.90  51.53  53.51
         57.62  68.48  69.53  71.69  73.48  86.36 103.58 103.99 120.30 132.35
        149.18 169.17
  36  1 -23.08 -20.11 -15.78 -14.23 -12.56 -10.92 -10.20  -7.61  -2.50   2.15
          2.70   3.66   6.62   6.90   7.48   7.54   8.07   8.16  10.08  12.77
         15.70  16.89  17.91  19.61  20.19  20.62  21.95  26.95  27.17  36.54
         41.20  42.56  43.62  43.97  47.67  48.30  48.49  49.92  50.87  53.47
         57.66  68.47  69.31  71.83  73.19  86.34 103.16 103.33 120.29 132.46
        148.94 169.76
  37  1 -23.08 -20.19 -15.72 -14.17 -12.56 -10.92 -10.19  -7.68  -2.42   2.15
          2.69   3.66   6.62   6.84   7.50   7.51   8.08   8.08  10.06  12.78
         15.66  16.97  18.04  19.65  20.23  20.62  21.91  26.96  27.26  36.52
         41.44  42.59  43.64  44.35  47.44  48.14  48.26  49.93  50.40  53.44
         57.71  68.46  69.16  71.97  72.89  86.33 102.37 103.06 120.28 132.57
        148.77 170.32
  38  1 -23.08 -20.26 -15.66 -14.10 -12.56 -10.92 -10.19  -7.76  -2.33   2.15
          2.69   3.66   6.62   6.77   7.48   7.52   7.99   8.09  10.06  12.80
         15.62  17.04  18.18  19.69  20.25  20.62  21.89  26.96  27.35  36.52
         41.55  42.62  43.65  44.63  47.20  47.99  48.05  49.93  50.15  53.42
         57.76  68.46  69.09  72.10  72.59  86.32 101.60 102.78 120.27 132.68
        148.69 170.85
  39  1 -23.08 -20.33 -15.59 -14.04 -12.56 -10.92 -10.19  -7.83  -2.24   2.15
          2.69   3.66   6.62   6.71   7.46   7.54   7.90   8.09  10.06  12.82
         15.58  17.12  18.31  19.73  20.25  20.62  21.89  26.96  27.45  36.51
         41.56  42.64  43.65  44.64  46.97  47.84  47.99  49.93  50.14  53.42
         57.81  68.45  69.09  72.21  72.28  86.32 100.86 102.50 120.27 132.78
        148.68 171.36
  40  1 -23.08 -20.40 -15.53 -13.98 -12.56 -10.92 -10.19  -7.91  -2.16   2.15
          2.69   3.66   6.62   6.64   7.43   7.55   7.81   8.08  10.06  12.84
         15.53  17.20  18.45  19.78  20.23  20.62  21.91  26.96  27.54  36.52
         41.46  42.66  43.64  44.38  46.75  47.64  48.13  49.93  50.37  53.43
         57.86  68.44  69.17  71.97  72.32  86.33 100.14 102.21 120.28 132.87
        148.76 171.83
  41  1 -23.08 -20.47 -15.46 -13.92 -12.56 -10.92 -10.19  -7.99  -2.07   2.15
          2.70   3.66   6.57   6.62   7.40   7.57   7.72   8.07  10.08  12.87
         15.48  17.28  18.59  19.83  20.19  20.62  21.95  26.95  27.63  36.53
         41.23  42.68  43.63  44.00  46.54  47.44  48.29  49.92  50.83  53.46
         57.91  68.44  69.32  71.65  72.41  86.34  99.45 101.91 120.28 132.96
        148.92 172.28
  42  1 -23.08 -20.54 -15.39 -13.86 -12.56 -10.92 -10.20  -8.06  -1.98   2.14
          2.71   3.67   6.51   6.62   7.37   7.58   7.64   8.05  10.10  12.90
         15.42  17.35  18.73  19.88  20.14  20.62  22.00  26.94  27.72  36.54
         40.84  42.69  43.61  43.65  46.34  47.25  48.40  49.90  51.48  53.50
         57.96  68.44  69.54  71.32  72.50  86.36  98.78 101.61 120.29 133.05
        149.15 172.69
  43  1 -23.08 -20.61 -15.33 -13.79 -12.56 -10.91 -10.21  -8.14  -1.89   2.14
          2.72   3.67   6.44   6.62   7.34   7.54   7.59   8.02  10.13  12.94
         15.36  17.43  18.88  19.94  20.07  20.62  22.07  26.93  27.80  36.57
         40.32  42.71  43.39  43.57  46.14  47.07  48.45  49.88  52.24  53.55
         58.01  68.46  69.83  70.99  72.57  86.38  98.14 101.29 120.31 133.13
        149.47 173.08
  44  1 -23.07 -20.68 -15.26 -13.73 -12.56 -10.91 -10.23  -8.21  -1.80   2.13
          2.74   3.68   6.37   6.62   7.32   7.45   7.59   7.98  10.16  12.99
         15.30  17.51  19.02  19.99  20.00  20.62  22.14  26.91  27.89  36.60
         39.68  42.71  43.22  43.53  45.95  46.90  48.46  49.85  53.04  53.62
         58.07  68.49  70.18  70.66  72.63  86.41  97.52 100.98 120.34 133.20
        149.85 173.43
  45  1 -23.07 -20.75 -15.19 -13.66 -12.56 -10.90 -10.24  -8.28  -1.71   2.13
          2.76   3.69   6.30   6.63   7.29   7.36   7.60   7.94  10.20  13.04
         15.23  17.59  19.17  19.90  20.06  20.62  22.22  26.89  27.98  36.64
         38.99  42.72  43.11  43.49  45.77  46.73  48.45  49.82  53.70  53.84
         58.12  68.52  70.32  70.61  72.69  86.44  96.93 100.65 120.38 133.26
        150.31 173.75
  46  1 -23.06 -20.82 -15.12 -13.60 -12.56 -10.90 -10.26  -8.36  -1.62   2.12
          2.79   3.70   6.24   6.63   7.26   7.27   7.60   7.90  10.25  13.10
         15.16  17.67  19.32  19.81  20.12  20.62  22.31  26.87  28.06  36.69
         38.27  42.72  43.05  43.43  45.60  46.57  48.41  49.78  53.79  54.61
         58.18  68.57  69.98  71.12  72.73  86.48  96.36 100.32 120.44 133.32
        150.84 174.05
  47  1 -23.06 -20.89 -15.05 -13.53 -12.56 -10.89 -10.29  -8.43  -1.53   2.11
          2.82   3.71   6.17   6.63   7.18   7.23   7.60   7.85  10.29  13.16
         15.09  17.75  19.47  19.71  20.19  20.62  22.41  26.84  28.14  36.74
         37.55  42.72  43.01  43.38  45.44  46.42  48.37  49.73  53.89  55.34
         58.24  68.63  69.63  71.70  72.76  86.52  95.82  99.98 120.52 133.37
        151.42 174.31
  48  1 -23.05 -20.95 -14.99 -13.47 -12.56 -10.89 -10.31  -8.51  -1.44   2.10
          2.85   3.73   6.10   6.63   7.09   7.20   7.59   7.80  10.35  13.22
         15.02  17.83  19.59  19.65  20.26  20.62  22.50  26.81  28.22  36.81
         36.84  42.71  42.99  43.31  45.29  46.28  48.31  49.69  54.01  56.01
         58.29  68.69  69.28  72.35  72.79  86.57  95.30  99.64 120.62 133.42
        152.07 174.55
  49  1 -23.05 -21.02 -14.92 -13.40 -12.56 -10.88 -10.34  -8.58  -1.35   2.09
          2.88   3.75   6.03   6.63   7.00   7.18   7.59   7.74  10.40  13.29
         14.94  17.91  19.50  19.78  20.33  20.62  22.60  26.77  28.29  36.16
         36.89  42.71  42.99  43.24  45.15  46.14  48.25  49.63  54.13  56.62
         58.35  68.76  68.92  72.79  73.09  86.62  94.80  99.29 120.75 133.45
        152.77 174.75
  50  1 -23.04 -21.09 -14.85 -13.34 -12.56 -10.87 -10.37  -8.65  -1.25   2.08
          2.92   3.76   5.96   6.64   6.91   7.15   7.58   7.68  10.46  13.37
         14.86  17.99  19.40  19.93  20.40  20.61  22.70  26.72  28.36  35.50
         36.97  42.70  42.99  43.17  45.03  46.00  48.17  49.57  54.25  57.16
         58.41  68.57  68.84  72.79  73.86  86.68  94.33  98.94 120.91 133.48
        153.52 174.93
  51  1 -23.03 -21.15 -14.78 -13.27 -12.56 -10.86 -10.40  -8.72  -1.16   2.06
          2.96   3.78   5.89   6.64   6.82   7.12   7.57   7.62  10.52  13.45
         14.78  18.07  19.29  20.09  20.48  20.61  22.79  26.67  28.43  34.88
         37.07  42.69  43.00  43.09  44.91  45.88  48.09  49.51  54.39  57.63
         58.47  68.21  68.92  72.79  74.68  86.74  93.87  98.58 121.10 133.50
        154.31 175.08
  52  1 -23.02 -21.22 -14.70 -13.20 -12.57 -10.85 -10.44  -8.79  -1.07   2.05
          3.00   3.81   5.82   6.64   6.73   7.09   7.55   7.56  10.58  13.54
         14.69  18.15  19.18  20.24  20.56  20.61  22.89  26.61  28.50  34.29
         37.18  42.67  43.01  43.02  44.80  45.76  48.00  49.44  54.53  58.04
         58.52  67.84  69.01  72.78  75.54  86.80  93.44  98.22 121.33 133.51
        155.13 175.20
  53  1 -23.01 -21.28 -14.63 -13.14 -12.57 -10.84 -10.47  -8.87  -0.97   2.03
          3.04   3.83   5.75   6.65   6.65   7.06   7.49   7.54  10.65  13.63
         14.61  18.23  19.07  20.40  20.60  20.65  22.98  26.54  28.56  33.74
         37.30  42.65  42.93  43.04  44.70  45.64  47.91  49.37  54.68  58.39
         58.58  67.48  69.10  72.75  76.41  86.87  93.03  97.85 121.60 133.51
        155.99 175.29
  54  1 -23.00 -21.35 -14.56 -13.07 -12.57 -10.83 -10.51  -8.94  -0.88   2.01
          3.08   3.86   5.68   6.56   6.65   7.03   7.43   7.52  10.71  13.73
         14.52  18.31  18.96  20.56  20.60  20.74  23.07  26.46  28.62  33.23
         37.43  42.63  42.85  43.07  44.62  45.53  47.81  49.29  54.83  58.64
         58.69  67.11  69.20  72.73  77.29  86.95  92.64  97.48 121.90 133.50
        156.88 175.36
  55  1 -22.99 -21.41 -14.49 -13.00 -12.57 -10.81 -10.55  -9.01  -0.78   2.00
          3.13   3.89   5.61   6.47   6.66   7.00   7.36   7.50  10.78  13.83
         14.42  18.39  18.85  20.60  20.71  20.83  23.16  26.38  28.67  32.75
         37.58  42.61  42.77  43.10  44.54  45.43  47.70  49.20  54.99  58.70
         58.95  66.74  69.29  72.69  78.16  87.03  92.26  97.10 122.24 133.48
        157.78 175.40
  56  1 -22.98 -21.47 -14.42 -12.93 -12.57 -10.80 -10.59  -9.08  -0.69   1.98
          3.18   3.92   5.54   6.39   6.66   6.98   7.29   7.48  10.85  13.93
         14.33  18.47  18.74  20.59  20.87  20.92  23.25  26.28  28.72  32.32
         37.74  42.57  42.69  43.13  44.48  45.33  47.59  49.10  55.15  58.76
         59.17  66.37  69.39  72.64  79.01  87.11  91.91  96.72 122.62 133.46
        158.70 175.42
  57  1 -22.97 -21.53 -14.34 -12.87 -12.58 -10.79 -10.64  -9.15  -0.59   1.95
          3.23   3.96   5.47   6.30   6.67   6.95   7.22   7.46  10.91  14.04
         14.23  18.55  18.63  20.59  21.01  21.03  23.33  26.18  28.77  31.92
         37.92  42.53  42.62  43.17  44.43  45.24  47.48  49.00  55.31  58.82
         59.36  65.99  69.49  72.59  79.83  87.19  91.57  96.34 123.03 133.42
        159.62 175.41
  58  1 -22.95 -21.60 -14.27 -12.80 -12.58 -10.77 -10.68  -9.22  -0.50   1.93
          3.28   3.99   5.40   6.22   6.68   6.92   7.16   7.44  10.98  14.14
         14.16  18.53  18.64  20.58  21.11  21.19  23.41  26.06  28.82  31.56
         38.11  42.47  42.57  43.21  44.38  45.15  47.36  48.89  55.48  58.88
         59.51  65.62  69.60  72.54  80.61  87.28  91.26  95.96 123.47 133.37
        160.55 175.38
  59  1 -22.94 -21.66 -14.19 -12.73 -12.59 -10.75 -10.73  -9.29  -0.40   1.91
          3.33   4.04   5.33   6.14   6.68   6.89   7.09   7.41  11.05  14.04
         14.27  18.42  18.72  20.57  21.22  21.34  23.48  25.93  28.86  31.24
         38.32  42.40  42.53  43.26  44.35  45.07  47.23  48.76  55.65  58.94
         59.64  65.24  69.70  72.48  81.35  87.36  90.95  95.57 123.95 133.32
        161.47 175.32
  60  1 -22.93 -21.72 -14.12 -12.66 -12.59 -10.78 -10.74  -9.35  -0.30   1.88
          3.38   4.08   5.26   6.06   6.69   6.86   7.02   7.39  11.12  13.93
         14.40  18.31  18.80  20.57  21.32  21.50  23.55  25.80  28.89  30.95
         38.54  42.33  42.49  43.31  44.33  45.00  47.11  48.63  55.82  59.00
         59.75  64.86  69.80  72.41  82.05  87.45  90.67  95.18 124.44 133.25
        162.38 175.25
  61  1 -22.91 -21.78 -14.04 -12.61 -12.58 -10.83 -10.72  -9.42  -0.21   1.86
          3.43   4.13   5.18   5.98   6.70   6.83   6.95   7.36  11.19  13.83
         14.52  18.21  18.89  20.56  21.43  21.66  23.61  25.65  28.93  30.69
         38.79  42.26  42.46  43.36  44.32  44.93  46.98  48.49  56.00  59.06
         59.84  64.48  69.90  72.34  82.71  87.54  90.40  94.79 124.95 133.18
        163.27 175.15
  62  1 -22.90 -21.84 -13.97 -12.61 -12.52 -10.88 -10.70  -9.49  -0.11   1.83
          3.48   4.18   5.11   5.90   6.70   6.80   6.89   7.33  11.26  13.73
         14.65  18.10  18.97  20.55  21.54  21.81  23.66  25.50  28.96  30.47
         39.05  42.19  42.42  43.41  44.32  44.86  46.85  48.34  56.17  59.12
         59.92  64.10  70.00  72.27  83.32  87.63  90.14  94.40 125.47 133.09
        164.14 175.03
  63  1 -22.88 -21.90 -13.89 -12.61 -12.45 -10.93 -10.68  -9.55  -0.01   1.80
          3.52   4.23   5.04   5.82   6.71   6.77   6.82   7.30  11.32  13.62
         14.78  18.00  19.05  20.53  21.66  21.96  23.71  25.34  28.99  30.27
         39.33  42.12  42.38  43.47  44.32  44.80  46.71  48.18  56.35  59.18
         59.98  63.72  70.10  72.19  83.88  87.71  89.90  94.00 126.00 133.00
        164.99 174.89
  64  1 -22.86 -21.95 -13.82 -12.62 -12.38 -10.98 -10.66  -9.62   0.09   1.77
          3.57   4.29   4.96   5.75   6.72   6.74   6.76   7.27  11.39  13.51
         14.92  17.90  19.14  20.52  21.78  22.11  23.76  25.18  29.02  30.10
         39.63  42.06  42.34  43.53  44.34  44.74  46.58  48.01  56.53  59.25
         60.03  63.34  70.20  72.11  84.40  87.80  89.67  93.60 126.53 132.89
        165.80 174.74
  65  1 -22.85 -22.01 -13.74 -12.63 -12.32 -11.03 -10.64  -9.69   0.19   1.74
          3.62   4.35   4.89   5.67   6.69   6.72   6.73   7.24  11.46  13.41
         15.06  17.80  19.22  20.50  21.90  22.26  23.79  25.02  29.04  29.96
         39.96  42.00  42.30  43.60  44.37  44.69  46.44  47.83  56.71  59.31
         60.07  62.96  70.29  72.03  84.88  87.88  89.46  93.21 127.05 132.78
        166.57 174.56
  66  1 -22.83 -22.07 -13.66 -12.64 -12.25 -11.08 -10.62  -9.75   0.28   1.70
          3.66   4.42   4.81   5.60   6.63   6.68   6.74   7.21  11.53  13.30
         15.20  17.70  19.31  20.49  22.03  22.40  23.82  24.86  29.07  29.83
         40.30  41.95  42.26  43.66  44.40  44.64  46.30  47.63  56.89  59.37
         60.09  62.58  70.38  71.95  85.32  87.96  89.26  92.81 127.56 132.65
        167.30 174.37
  67  1 -22.81 -22.13 -13.59 -12.66 -12.18 -11.13 -10.60  -9.81   0.38   1.67
          3.71   4.48   4.74   5.53   6.58   6.65   6.75   7.18  11.59  13.19
         15.34  17.60  19.39  20.47  22.16  22.55  23.84  24.70  29.09  29.72
         40.67  41.91  42.21  43.73  44.44  44.59  46.17  47.42  57.07  59.43
         60.12  62.20  70.47  71.86  85.72  88.04  89.07  92.41 128.05 132.52
        167.99 174.17
  68  1 -22.79 -22.18 -13.51 -12.67 -12.11 -11.18 -10.58  -9.88   0.48   1.63
          3.75   4.54   4.67   5.46   6.52   6.62   6.76   7.14  11.66  13.08
         15.49  17.51  19.48  20.45  22.29  22.69  23.86  24.54  29.11  29.63
         41.06  41.87  42.17  43.80  44.49  44.55  46.03  47.20  57.26  59.49
         60.13  61.83  70.55  71.78  86.09  88.11  88.89  92.01 128.51 132.37
        168.62 173.95
  69  1 -22.77 -22.24 -13.43 -12.69 -12.04 -11.23 -10.55  -9.94   0.58   1.59
          3.80   4.57   4.63   5.39   6.47   6.59   6.78   7.11  11.72  12.96
         15.64  17.41  19.57  20.42  22.43  22.82  23.87  24.39  29.13  29.55
         41.47  41.84  42.13  43.88  44.52  44.55  45.89  46.97  57.44  59.56
         60.13  61.45  70.63  71.69  86.44  88.18  88.73  91.61 128.94 132.22
        169.21 173.72
  70  1 -22.75 -22.29 -13.35 -12.71 -11.97 -11.28 -10.53 -10.00   0.68   1.55
          3.84   4.51   4.68   5.33   6.43   6.56   6.79   7.08  11.79  12.85
         15.80  17.32  19.65  20.40  22.58  22.95  23.86  24.25  29.15  29.48
         41.81  41.92  42.08  43.95  44.48  44.61  45.75  46.73  57.62  59.62
         60.13  61.07  70.70  71.61  86.75  88.24  88.58  91.21 129.34 132.06
        169.74 173.47
  71  1 -22.73 -22.34 -13.27 -12.73 -11.90 -11.33 -10.50 -10.07   0.78   1.51
          3.88   4.44   4.74   5.26   6.39   6.53   6.80   7.04  11.85  12.74
         15.95  17.22  19.74  20.37  22.72  23.08  23.85  24.11  29.17  29.43
         41.80  42.03  42.38  44.03  44.45  44.68  45.62  46.48  57.80  59.68
         60.13  60.69  70.77  71.53  87.03  88.30  88.46  90.82 129.70 131.88
        170.22 173.22
  72  1 -22.70 -22.40 -13.20 -12.76 -11.83 -11.37 -10.48 -10.13   0.88   1.47
          3.92   4.36   4.80   5.20   6.35   6.50   6.82   7.01  11.91  12.63
         16.11  17.13  19.82  20.33  22.88  23.21  23.84  23.99  29.19  29.38
         41.79  41.99  42.87  44.11  44.43  44.75  45.49  46.22  57.99  59.75
         60.12  60.32  70.83  71.44  87.27  88.28  88.43  90.42 130.02 131.70
        170.63 172.95
  73  1 -22.68 -22.45 -13.12 -12.79 -11.76 -11.41 -10.45 -10.19   0.98   1.42
          3.96   4.29   4.86   5.14   6.33   6.47   6.83   6.98  11.97  12.51
         16.27  17.04  19.91  20.30  23.03  23.33  23.81  23.86  29.21  29.34
         41.78  41.94  43.38  44.18  44.41  44.83  45.36  45.95  58.17  59.81
         59.95  60.10  70.89  71.36  87.47  88.17  88.52  90.03 130.30 131.51
        170.99 172.68
  74  1 -22.66 -22.50 -13.04 -12.82 -11.69 -11.46 -10.42 -10.25   1.08   1.38
          4.00   4.21   4.91   5.08   6.32   6.44   6.85   6.94  12.03  12.40
         16.44  16.96  20.00  20.26  23.20  23.45  23.75  23.78  29.23  29.31
         41.78  41.90  43.92  44.24  44.39  44.91  45.25  45.66  58.35  59.58
         59.88  60.08  70.94  71.29  87.63  88.07  88.64  89.63 130.52 131.31
        171.28 172.40
  75  1 -22.64 -22.55 -12.96 -12.85 -11.62 -11.49 -10.40 -10.31   1.18   1.33
          4.04   4.14   4.95   5.02   6.31   6.40   6.86   6.91  12.08  12.29
         16.60  16.87  20.08  20.22  23.37  23.56  23.65  23.73  29.26  29.29
         41.78  41.87  44.29  44.37  44.49  45.00  45.15  45.37  58.53  59.21
         59.94  60.05  70.97  71.22  87.73  87.99  88.78  89.24 130.70 131.11
        171.50 172.13
  76  1 -22.62 -22.59 -12.90 -12.87 -11.56 -11.53 -10.38 -10.35   1.26   1.30
          4.06   4.08   4.95   4.99   6.32   6.37   6.87   6.88  12.11  12.21
         16.76  16.79  20.17  20.19  23.53  23.56  23.67  23.69  29.26  29.30
         41.75  41.86  44.31  44.36  45.04  45.08  45.09  45.12  58.70  58.86
         60.00  60.03  70.98  71.18  87.76  87.93  88.83  88.98 130.77 130.96
        171.57 171.94
  77  1 -22.66 -22.58 -12.94 -12.79 -11.57 -11.48 -10.43 -10.34   1.23   1.39
          3.99   4.11   4.90   5.01   6.32   6.36   6.84   6.90  12.04  12.22
         16.70  16.94  20.14  20.26  23.47  23.63  23.72  23.78  29.25  29.33
         41.72  41.88  44.31  44.34  44.77  45.06  45.18  45.70  58.47  58.91
         59.98  60.08  70.96  71.16  87.74  87.91  88.46  89.16 130.61 130.98
        171.38 171.94
  78  1 -22.71 -22.55 -12.98 -12.72 -11.60 -11.42 -10.48 -10.31   1.17   1.49
          3.92   4.15   4.84   5.02   6.30   6.39   6.81   6.91  11.93  12.27
         16.62  17.11  20.09  20.34  23.40  23.56  23.88  23.91  29.24  29.36
         41.67  41.91  44.26  44.33  44.46  45.08  45.27  46.34  58.12  59.08
         59.95  60.14  70.91  71.17  87.68  87.89  88.09  89.37 130.39 131.01
        171.09 171.98
  79  1 -22.76 -22.53 -13.03 -12.64 -11.62 -11.35 -10.54 -10.28   1.12   1.58
          3.85   4.18   4.79   5.03   6.27   6.44   6.77   6.93  11.82  12.32
         16.54  17.28  20.04  20.43  23.33  23.49  23.98  24.10  29.24  29.41
         41.62  41.94  44.15  44.17  44.32  45.13  45.37  47.00  57.77  59.26
         59.90  60.21  70.85  71.18  87.59  87.70  87.91  89.58 130.14 131.00
        170.78 171.98
  80  1 -22.80 -22.50 -13.08 -12.55 -11.65 -11.28 -10.59 -10.24   1.06   1.68
          3.78   4.21   4.73   5.03   6.23   6.50   6.74   6.95  11.70  12.37
         16.45  17.46  19.99  20.51  23.28  23.41  24.08  24.30  29.24  29.45
         41.57  41.98  43.84  44.07  44.32  45.21  45.47  47.68  57.42  59.44
         59.86  60.27  70.78  71.19  87.27  87.61  87.86  89.80 129.89 130.96
        170.45 171.93
  81  1 -22.85 -22.47 -13.13 -12.47 -11.67 -11.21 -10.65 -10.21   1.01   1.78
          3.71   4.24   4.68   5.02   6.20   6.57   6.71   6.97  11.59  12.43
         16.38  17.64  19.94  20.60  23.23  23.32  24.17  24.51  29.24  29.51
         41.52  42.02  43.53  43.94  44.32  45.31  45.57  48.39  57.09  59.62
         59.80  60.34  70.72  71.20  86.90  87.56  87.82  90.01 129.63 130.87
        170.12 171.82
  82  1 -22.90 -22.44 -13.19 -12.39 -11.69 -11.14 -10.70 -10.18   0.95   1.88
          3.64   4.26   4.63   5.02   6.16   6.65   6.67   6.99  11.47  12.47
         16.30  17.81  19.89  20.68  23.19  23.23  24.26  24.72  29.25  29.57
         41.48  42.04  43.24  43.82  44.33  45.41  45.67  49.11  56.76  59.75
         59.80  60.41  70.66  71.20  86.52  87.54  87.76  90.23 129.37 130.74
        169.78 171.66
  83  1 -22.94 -22.41 -13.25 -12.31 -11.71 -11.07 -10.76 -10.14   0.89   1.98
          3.57   4.28   4.58   5.01   6.13   6.64   6.74   7.02  11.36  12.52
         16.22  17.99  19.83  20.76  23.13  23.15  24.34  24.95  29.26  29.64
         41.43  42.03  43.00  43.68  44.33  45.53  45.77  49.84  56.45  59.69
         59.98  60.48  70.59  71.19  86.15  87.52  87.69  90.45 129.09 130.58
        169.43 171.45
  84  1 -22.99 -22.38 -13.32 -12.23 -11.72 -11.01 -10.81 -10.11   0.83   2.08
          3.50   4.29   4.53   5.01   6.09   6.61   6.83   7.04  11.25  12.57
         16.15  18.18  19.78  20.84  23.03  23.13  24.42  25.18  29.28  29.72
         41.38  41.94  42.83  43.55  44.34  45.65  45.87  50.56  56.16  59.63
         60.16  60.55  70.54  71.17  85.78  87.51  87.62  90.66 128.81 130.38
        169.09 171.18
  85  1 -23.03 -22.35 -13.38 -12.15 -11.74 -10.94 -10.86 -10.07   0.77   2.18
          3.43   4.29   4.48   5.01   6.05   6.57   6.93   7.06  11.14  12.61
         16.07  18.36  19.72  20.92  22.92  23.11  24.50  25.42  29.29  29.81
         41.33  41.75  42.78  43.41  44.35  45.77  45.97  51.28  55.92  59.56
         60.33  60.62  70.48  71.15  85.41  87.48  87.57  90.88 128.52 130.16
        168.74 170.86
  86  1 -23.08 -22.32 -13.45 -12.07 -11.75 -10.92 -10.87 -10.04   0.70   2.28
          3.37   4.29   4.44   5.01   6.01   6.54   7.04   7.09  11.03  12.66
         16.00  18.54  19.67  20.99  22.81  23.09  24.57  25.67  29.31  29.90
         41.28  41.49  42.80  43.27  44.36  45.89  46.07  51.94  55.74  59.49
         60.51  60.69  70.43  71.12  85.04  87.41  87.56  91.09 128.22 129.91
        168.38 170.49
  87  1 -23.12 -22.29 -13.52 -11.99 -11.76 -10.97 -10.81 -10.00   0.64   2.38
          3.30   4.28   4.39   5.03   5.98   6.51   7.11   7.15  10.92  12.70
         15.92  18.73  19.61  21.07  22.69  23.08  24.64  25.93  29.33  30.02
         41.18  41.24  42.86  43.13  44.37  46.02  46.17  52.50  55.70  59.41
         60.68  60.76  70.38  71.08  84.68  87.32  87.58  91.31 127.92 129.64
        168.03 170.08
  88  1 -23.17 -22.26 -13.60 -11.90 -11.76 -11.02 -10.74  -9.97   0.57   2.48
          3.24   4.25   4.35   5.05   5.94   6.48   7.14   7.26  10.81  12.74
         15.85  18.91  19.56  21.14  22.57  23.08  24.71  26.20  29.36  30.14
         40.87  41.19  42.96  43.00  44.39  46.15  46.27  52.87  55.86  59.33
         60.83  60.85  70.33  71.03  84.32  87.21  87.62  91.52 127.62 129.35
        167.67 169.61
  89  1 -23.21 -22.22 -13.67 -11.83 -11.76 -11.07 -10.67  -9.93   0.50   2.58
          3.18   4.23   4.30   5.08   5.90   6.45   7.17   7.37  10.70  12.77
         15.78  19.10  19.51  21.21  22.45  23.09  24.78  26.49  29.39  30.28
         40.54  41.14  42.86  43.06  44.41  46.27  46.37  53.00  56.27  59.24
         60.90  61.02  70.29  70.97  83.97  87.10  87.67  91.72 127.31 129.05
        167.31 169.10
  90  1 -23.25 -22.19 -13.75 -11.78 -11.73 -11.12 -10.61  -9.89   0.43   2.67
          3.11   4.19   4.26   5.11   5.86   6.42   7.19   7.49  10.59  12.81
         15.71  19.28  19.45  21.28  22.33  23.09  24.84  26.78  29.42  30.43
         40.22  41.10  42.72  43.18  44.43  46.37  46.49  52.94  56.89  59.15
         60.98  61.19  70.24  70.91  83.62  86.98  87.73  91.93 126.99 128.73
        166.95 168.54
  91  1 -23.29 -22.16 -13.83 -11.78 -11.65 -11.17 -10.54  -9.85   0.36   2.77
          3.05   4.15   4.22   5.15   5.81   6.38   7.22   7.60  10.48  12.84
         15.64  19.40  19.47  21.34  22.20  23.11  24.90  27.09  29.46  30.60
         39.89  41.06  42.58  43.31  44.45  46.47  46.61  52.77  57.64  59.06
         61.05  61.36  70.21  70.83  83.27  86.85  87.80  92.14 126.67 128.42
        166.58 167.94
  92  1 -23.33 -22.12 -13.90 -11.78 -11.57 -11.21 -10.48  -9.81   0.29   2.87
          3.00   4.11   4.18   5.19   5.77   6.35   7.25   7.72  10.38  12.87
         15.57  19.36  19.66  21.40  22.08  23.12  24.96  27.41  29.49  30.79
         39.56  41.02  42.44  43.45  44.47  46.55  46.75  52.53  58.45  58.96
         61.13  61.53  70.17  70.74  82.93  86.72  87.89  92.34 126.34 128.09
        166.22 167.31
  93  1 -23.37 -22.08 -13.98 -11.78 -11.49 -11.26 -10.41  -9.77   0.22   2.94
          2.96   4.07   4.14   5.23   5.73   6.33   7.28   7.84  10.28  12.90
         15.50  19.31  19.85  21.46  21.95  23.15  25.02  27.74  29.53  30.99
         39.24  40.97  42.30  43.59  44.50  46.63  46.89  52.27  58.86  59.30
         61.20  61.69  70.13  70.65  82.59  86.59  87.99  92.54 126.02 127.78
        165.83 166.64
  94  1 -23.41 -22.05 -14.07 -11.78 -11.41 -11.31 -10.35  -9.73   0.15   2.88
          3.06   4.02   4.10   5.28   5.68   6.30   7.31   7.96  10.17  12.93
         15.43  19.26  20.04  21.52  21.82  23.17  25.07  28.09  29.58  31.22
         38.91  40.93  42.16  43.74  44.52  46.71  47.03  51.99  58.75  60.18
         61.28  61.86  70.10  70.54  82.25  86.46  88.10  92.74 125.68 127.46
        165.41 165.98
  95  1 -23.45 -22.01 -14.15 -11.78 -11.35 -11.33 -10.29  -9.69   0.07   2.83
          3.15   3.97   4.06   5.33   5.64   6.27   7.35   8.08  10.07  12.96
         15.36  19.22  20.22  21.57  21.69  23.20  25.12  28.45  29.62  31.47
         38.60  40.90  42.02  43.89  44.55  46.77  47.17  51.69  58.64  61.07
         61.36  62.02  70.06  70.43  81.92  86.33  88.22  92.93 125.35 127.15
        164.85 165.41
  96  1 -23.49 -21.97 -14.23 -11.78 -11.40 -11.25 -10.22  -9.64  -0.00   2.77
          3.25   3.92   4.02   5.39   5.59   6.24   7.38   8.20   9.97  12.98
         15.29  19.18  20.41  21.57  21.61  23.23  25.17  28.83  29.67  31.74
         38.28  40.86  41.88  44.05  44.58  46.84  47.32  51.40  58.52  61.44
         61.96  62.18  70.01  70.32  81.60  86.20  88.36  93.13 125.01 126.85
        164.12 164.97
  97  1 -23.52 -21.93 -14.32 -11.78 -11.44 -11.16 -10.16  -9.60  -0.08   2.72
          3.34   3.87   3.98   5.44   5.55   6.21   7.41   8.32   9.88  13.01
         15.23  19.14  20.60  21.44  21.66  23.27  25.22  29.22  29.72  32.03
         37.98  40.83  41.74  44.21  44.61  46.89  47.46  51.09  58.39  61.52
         62.34  62.86  69.94  70.22  81.28  86.07  88.50  93.32 124.67 126.57
        163.30 164.60
  98  1 -23.56 -21.89 -14.40 -11.78 -11.48 -11.08 -10.10  -9.56  -0.15   2.67
          3.43   3.82   3.94   5.49   5.51   6.18   7.45   8.44   9.78  13.03
         15.16  19.10  20.79  21.32  21.70  23.31  25.27  29.63  29.78  32.35
         37.67  40.79  41.59  44.37  44.64  46.95  47.60  50.79  58.27  61.60
         62.49  63.75  69.84  70.15  80.96  85.94  88.66  93.50 124.33 126.29
        162.42 164.24
  99  1 -23.60 -21.85 -14.48 -11.77 -11.52 -11.00 -10.04  -9.51  -0.23   2.62
          3.52   3.77   3.91   5.45   5.56   6.16   7.48   8.56   9.69  13.05
         15.09  19.06  20.97  21.20  21.73  23.35  25.32  29.83  30.07  32.70
         37.38  40.76  41.45  44.54  44.67  46.99  47.75  50.49  58.13  61.68
         62.65  64.62  69.71  70.11  80.65  85.81  88.83  93.69 123.98 126.03
        161.50 163.90
 100  1 -23.63 -21.81 -14.57 -11.77 -11.57 -10.92  -9.98  -9.47  -0.31   2.57
          3.61   3.72   3.87   5.40   5.63   6.13   7.52   8.68   9.60  13.07
         15.02  19.03  21.08  21.16  21.76  23.40  25.36  29.89  30.52  33.08
         37.09  40.73  41.31  44.71  44.72  47.03  47.89  50.19  58.00  61.77
         62.80  65.49  69.56  70.07  80.34  85.69  89.02  93.87 123.64 125.79
        160.54 163.56
 101  1 -23.67 -21.77 -14.66 -11.76 -11.61 -10.84  -9.92  -9.42  -0.39   2.53
          3.67   3.70   3.84   5.35   5.69   6.11   7.55   8.80   9.51  13.09
         14.95  19.00  20.96  21.35  21.79  23.45  25.41  29.95  30.99  33.49
         36.80  40.70  41.17  44.74  44.89  47.07  48.04  49.89  57.85  61.85
         62.95  66.34  69.38  70.05  80.04  85.58  89.21  94.05 123.29 125.57
        159.55 163.24
 102  1 -23.70 -21.73 -14.74 -11.76 -11.65 -10.76  -9.86  -9.38  -0.47   2.48
          3.61   3.79   3.80   5.30   5.75   6.08   7.59   8.91   9.42  13.10
         14.88  18.97  20.85  21.53  21.82  23.50  25.45  30.02  31.48  33.92
         36.52  40.68  41.02  44.78  45.07  47.10  48.18  49.59  57.71  61.94
         63.10  67.17  69.20  70.04  79.74  85.47  89.42  94.22 122.94 125.36
        158.52 162.92
 103  1 -23.73 -21.69 -14.83 -11.76 -11.69 -10.68  -9.80  -9.33  -0.55   2.44
          3.56   3.77   3.88   5.24   5.82   6.06   7.63   9.03   9.34  13.12
         14.81  18.94  20.74  21.72  21.84  23.55  25.49  30.08  32.00  34.40
         36.25  40.65  40.88  44.81  45.25  47.13  48.32  49.30  57.56  62.03
         63.25  67.98  69.01  70.03  79.45  85.36  89.64  94.39 122.59 125.17
        157.47 162.62
 104  1 -23.77 -21.65 -14.92 -11.75 -11.73 -10.60  -9.75  -9.29  -0.63   2.39
          3.51   3.74   3.97   5.19   5.89   6.03   7.67   9.13   9.26  13.13
         14.74  18.92  20.64  21.85  21.90  23.61  25.53  30.15  32.53  34.90
         35.98  40.63  40.73  44.85  45.43  47.15  48.46  49.01  57.40  62.12
         63.39  68.76  68.81  70.02  79.17  85.26  89.87  94.56 122.24 125.00
        156.39 162.32
 105  1 -23.80 -21.60 -15.00 -11.76 -11.75 -10.52  -9.69  -9.24  -0.71   2.35
          3.46   3.71   4.05   5.14   5.95   6.01   7.71   9.14   9.28  13.14
         14.67  18.89  20.53  21.87  22.08  23.67  25.57  30.23  33.09  35.45
         35.72  40.58  40.61  44.89  45.61  47.16  48.60  48.72  57.24  62.22
         63.53  68.60  69.52  70.02  78.89  85.17  90.11  94.72 121.89 124.85
        155.29 162.03
 106  1 -23.83 -21.56 -15.09 -11.80 -11.74 -10.44  -9.63  -9.19  -0.79   2.31
          3.41   3.68   4.14   5.08   5.99   6.02   7.75   9.07   9.38  13.16
         14.60  18.87  20.43  21.88  22.26  23.73  25.61  30.30  33.68  35.46
         36.03  40.43  40.59  44.93  45.80  47.17  48.43  48.73  57.08  62.31
         63.67  68.39  70.01  70.25  78.61  85.08  90.36  94.88 121.53 124.71
        154.16 161.75
 107  1 -23.86 -21.51 -15.18 -11.84 -11.73 -10.37  -9.58  -9.14  -0.87   2.28
          3.36   3.65   4.22   5.02   5.96   6.09   7.79   9.00   9.48  13.17
         14.53  18.85  20.34  21.88  22.44  23.80  25.65  30.38  34.29  35.21
         36.66  40.29  40.57  44.97  45.98  47.18  48.15  48.87  56.91  62.41
         63.81  68.18  70.01  70.94  78.34  85.00  90.62  95.04 121.18 124.60
        153.02 161.49
 108  1 -23.89 -21.47 -15.26 -11.87 -11.73 -10.29  -9.52  -9.10  -0.95   2.24
          3.31   3.62   4.30   4.97   5.94   6.16   7.83   8.92   9.59  13.18
         14.46  18.83  20.25  21.89  22.62  23.87  25.69  30.46  34.93  34.97
         37.33  40.13  40.56  45.02  46.17  47.18  47.87  49.00  56.74  62.52
         63.94  67.96  70.01  71.61  78.08  84.92  90.89  95.19 120.83 124.50
        151.86 161.24
 109  1 -23.92 -21.42 -15.35 -11.91 -11.72 -10.21  -9.47  -9.05  -1.03   2.20
          3.26   3.59   4.39   4.91   5.92   6.23   7.87   8.85   9.69  13.19
         14.39  18.82  20.16  21.89  22.79  23.94  25.73  30.54  34.73  35.60
         38.04  39.98  40.55  45.06  46.35  47.18  47.60  49.12  56.57  62.62
         64.08  67.75  70.02  72.25  77.82  84.84  91.17  95.34 120.48 124.41
        150.68 161.00
 110  1 -23.95 -21.37 -15.44 -11.94 -11.72 -10.13  -9.42  -9.00  -1.11   2.17
          3.21   3.56   4.47   4.85   5.90   6.31   7.92   8.78   9.78  13.21
         14.31  18.80  20.08  21.89  22.96  24.01  25.77  30.63  34.50  36.29
         38.80  39.83  40.54  45.11  46.54  47.17  47.33  49.25  56.39  62.73
         64.21  67.53  70.02  72.85  77.58  84.78  91.46  95.48 120.13 124.35
        149.50 160.78
 111  1 -23.97 -21.33 -15.53 -11.97 -11.71 -10.06  -9.37  -8.95  -1.19   2.14
          3.16   3.53   4.54   4.79   5.88   6.38   7.96   8.71   9.88  13.22
         14.24  18.79  20.00  21.89  23.14  24.09  25.81  30.71  34.28  37.01
         39.59  39.69  40.53  45.15  46.71  47.08  47.16  49.37  56.21  62.85
         64.33  67.32  70.02  73.41  77.33  84.71  91.75  95.62 119.77 124.29
        148.31 160.57
 112  1 -24.00 -21.28 -15.61 -12.00 -11.70  -9.98  -9.31  -8.90  -1.27   2.11
          3.12   3.51   4.62   4.73   5.86   6.45   8.00   8.65   9.97  13.23
         14.17  18.77  19.93  21.88  23.30  24.17  25.84  30.80  34.06  37.76
         39.52  40.46  40.52  45.21  46.75  46.97  47.14  49.48  56.04  62.97
         64.46  67.11  70.03  73.95  77.10  84.65  92.06  95.75 119.42 124.25
        147.11 160.39
 113  1 -24.03 -21.23 -15.70 -12.04 -11.70  -9.91  -9.26  -8.85  -1.36   2.08
          3.07   3.48   4.67   4.70   5.84   6.53   8.05   8.58  10.05  13.25
         14.09  18.76  19.86  21.87  23.47  24.25  25.88  30.89  33.85  38.53
         39.36  40.52  41.37  45.26  46.52  47.12  47.13  49.59  55.86  63.09
         64.58  66.91  70.04  74.45  76.87  84.58  92.37  95.88 119.07 124.23
        145.91 160.22
 114  1 -24.05 -21.18 -15.79 -12.07 -11.69  -9.84  -9.22  -8.80  -1.44   2.05
          3.03   3.46   4.61   4.77   5.82   6.60   8.09   8.52  10.13  13.27
         14.02  18.75  19.79  21.86  23.63  24.34  25.92  30.98  33.64  39.20
         39.34  40.52  42.33  45.32  46.27  47.11  47.30  49.70  55.69  63.23
         64.70  66.70  70.05  74.91  76.65  84.52  92.68  96.01 118.72 124.21
        144.72 160.07
 115  1 -24.08 -21.13 -15.87 -12.10 -11.68  -9.76  -9.17  -8.75  -1.52   2.02
          2.98   3.43   4.55   4.85   5.80   6.68   8.14   8.46  10.21  13.29
         13.94  18.75  19.73  21.85  23.79  24.43  25.95  31.07  33.44  39.04
         40.15  40.52  43.34  45.39  46.03  47.09  47.48  49.80  55.52  63.37
         64.81  66.51  70.05  75.35  76.44  84.46  93.01  96.13 118.37 124.21
        143.53 159.94
 116  1 -24.10 -21.08 -15.96 -12.13 -11.68  -9.69  -9.12  -8.70  -1.60   2.00
          2.94   3.41   4.48   4.92   5.79   6.76   8.19   8.40  10.28  13.31
         13.87  18.74  19.68  21.84  23.95  24.52  25.99  31.17  33.25  38.88
         40.52  40.99  44.41  45.48  45.78  47.07  47.66  49.89  55.35  63.51
         64.93  66.32  70.06  75.74  76.24  84.40  93.33  96.25 118.02 124.21
        142.35 159.84
 117  1 -24.13 -21.03 -16.05 -12.15 -11.67  -9.62  -9.08  -8.65  -1.68   1.98
          2.90   3.39   4.42   4.99   5.77   6.83   8.23   8.34  10.34  13.33
         13.79  18.73  19.62  21.83  24.10  24.61  26.03  31.26  33.06  38.72
         40.53  41.83  45.51  45.54  45.58  47.08  47.84  49.97  55.19  63.67
         65.04  66.14  70.08  76.05  76.11  84.33  93.66  96.36 117.67 124.22
        141.18 159.76
 118  1 -24.15 -20.98 -16.13 -12.18 -11.66  -9.55  -9.03  -8.60  -1.76   1.95
          2.86   3.37   4.36   5.06   5.75   6.91   8.28   8.29  10.40  13.36
         13.72  18.73  19.57  21.81  24.25  24.70  26.06  31.35  32.87  38.56
         40.53  42.66  45.31  45.73  46.51  47.23  48.02  50.04  55.04  63.84
         65.14  65.97  70.09  75.87  76.45  84.26  94.00  96.46 117.32 124.24
        140.03 159.71
 119  1 -24.17 -20.93 -16.22 -12.21 -11.66  -9.48  -8.99  -8.55  -1.84   1.93
          2.82   3.34   4.30   5.12   5.74   6.99   8.24   8.33  10.45  13.39
         13.64  18.72  19.53  21.80  24.40  24.80  26.10  31.45  32.69  38.40
         40.54  43.43  45.08  45.95  46.82  48.14  48.20  50.11  54.90  64.02
         65.25  65.80  70.10  75.70  76.76  84.19  94.34  96.57 116.97 124.26
        138.90 159.68
 120  1 -24.19 -20.88 -16.30 -12.23 -11.65  -9.41  -8.94  -8.50  -1.91   1.91
          2.78   3.32   4.24   5.19   5.72   7.07   8.19   8.38  10.50  13.42
         13.56  18.72  19.49  21.78  24.54  24.90  26.13  31.54  32.52  38.24
         40.55  44.09  44.85  46.31  46.83  48.38  49.40  50.16  54.77  64.22
         65.35  65.64  70.12  75.54  77.04  84.11  94.68  96.66 116.61 124.28
        137.79 159.69
 121  1 -24.21 -20.82 -16.39 -12.26 -11.64  -9.35  -8.90  -8.45  -1.99   1.89
          2.74   3.30   4.17   5.25   5.71   7.15   8.14   8.43  10.54  13.45
         13.49  18.72  19.45  21.76  24.68  25.01  26.17  31.63  32.35  38.08
         40.56  44.56  44.63  46.81  46.88  48.55  50.19  50.77  54.65  64.43
         65.45  65.49  70.14  75.40  77.29  84.03  95.02  96.76 116.26 124.30
        136.71 159.72
 122  1 -24.23 -20.77 -16.47 -12.28 -11.64  -9.28  -8.86  -8.39  -2.07   1.87
          2.70   3.28   4.11   5.31   5.69   7.22   8.09   8.48  10.57  13.41
         13.49  18.71  19.41  21.74  24.82  25.12  26.20  31.71  32.19  37.92
         40.58  44.42  44.85  46.78  47.63  48.72  50.22  52.19  54.55  64.66
         65.35  65.54  70.16  75.28  77.51  83.94  95.36  96.84 115.91 124.32
        135.66 159.78
 123  1 -24.25 -20.72 -16.55 -12.31 -11.63  -9.22  -8.82  -8.34  -2.14   1.86
          2.67   3.26   4.05   5.38   5.68   7.30   8.05   8.53  10.60  13.33
         13.53  18.71  19.38  21.72  24.95  25.23  26.24  31.80  32.04  37.76
         40.59  44.21  45.04  46.74  48.50  48.88  50.23  53.66  54.46  64.91
         65.22  65.64  70.18  75.18  77.72  83.84  95.71  96.93 115.55 124.33
        134.65 159.88
 124  1 -24.27 -20.66 -16.64 -12.33 -11.63  -9.16  -8.78  -8.29  -2.22   1.84
          2.63   3.25   3.99   5.43   5.66   7.38   8.01   8.58  10.62  13.26
         13.57  18.71  19.35  21.71  25.08  25.34  26.27  31.88  31.89  37.60
         40.61  44.01  45.16  46.70  49.05  49.43  50.22  54.39  55.21  65.09
         65.20  65.73  70.21  75.10  77.89  83.73  96.05  97.00 115.20 124.33
        133.69 160.01
 125  1 -24.29 -20.61 -16.72 -12.35 -11.62  -9.09  -8.75  -8.24  -2.29   1.82
          2.60   3.23   3.93   5.49   5.65   7.46   7.97   8.63  10.63  13.18
         13.62  18.71  19.33  21.69  25.20  25.45  26.31  31.74  31.95  37.45
         40.62  43.81  45.25  46.66  49.21  50.20  50.38  54.35  56.79  64.98
         65.49  65.81  70.24  75.05  78.05  83.61  96.40  97.08 114.84 124.31
        132.78 160.17
 126  1 -24.31 -20.55 -16.80 -12.37 -11.61  -9.04  -8.71  -8.20  -2.37   1.81
          2.56   3.21   3.87   5.55   5.64   7.54   7.93   8.68  10.64  13.10
         13.67  18.71  19.30  21.67  25.32  25.57  26.34  31.60  32.02  37.30
         40.64  43.62  45.32  46.62  49.36  50.17  51.33  54.32  58.42  64.87
         65.82  65.89  70.29  75.03  78.19  83.49  96.74  97.15 114.48 124.27
        131.92 160.37
 127  1 -24.32 -20.49 -16.89 -12.39 -11.61  -8.98  -8.68  -8.15  -2.44   1.80
          2.53   3.19   3.82   5.60   5.63   7.62   7.89   8.73  10.64  13.03
         13.71  18.71  19.28  21.65  25.44  25.69  26.37  31.47  32.08  37.16
         40.66  43.43  45.38  46.57  49.51  50.12  52.26  54.31  60.08  64.77
         65.97  66.18  70.35  75.06  78.31  83.36  97.08  97.23 114.12 124.20
        131.13 160.61
 128  1 -24.34 -20.44 -16.97 -12.41 -11.60  -8.92  -8.64  -8.10  -2.51   1.78
          2.50   3.18   3.76   5.62   5.65   7.70   7.86   8.78  10.64  12.96
         13.77  18.71  19.27  21.63  25.55  25.82  26.40  31.34  32.13  37.02
         40.68  43.26  45.44  46.53  49.66  50.05  53.16  54.32  61.75  64.68
         66.05  66.56  70.43  75.13  78.42  83.21  97.26  97.46 113.75 124.09
        130.42 160.88
 129  1 -24.36 -20.38 -17.05 -12.43 -11.60  -8.87  -8.61  -8.05  -2.58   1.77
          2.47   3.16   3.70   5.60   5.70   7.77   7.83   8.83  10.63  12.88
         13.82  18.71  19.25  21.61  25.66  25.95  26.43  31.21  32.17  36.89
         40.71  43.08  45.48  46.49  49.80  49.98  54.01  54.34  63.43  64.59
         66.12  66.97  70.55  75.27  78.51  83.06  97.32  97.80 113.38 123.94
        129.79 161.19
 130  1 -24.37 -20.33 -17.13 -12.45 -11.59  -8.81  -8.58  -8.00  -2.64   1.76
          2.45   3.15   3.65   5.59   5.75   7.79   7.86   8.88  10.62  12.81
         13.87  18.71  19.23  21.59  25.76  26.08  26.47  31.09  32.20  36.77
         40.73  42.92  45.52  46.45  49.90  49.94  54.39  54.81  64.51  65.06
         66.19  67.38  70.75  75.49  78.58  82.90  97.37  98.15 113.01 123.73
        129.26 161.53
 131  1 -24.38 -20.27 -17.21 -12.46 -11.59  -8.76  -8.55  -7.96  -2.71   1.75
          2.42   3.13   3.60   5.58   5.79   7.76   7.93   8.93  10.61  12.74
         13.92  18.71  19.22  21.57  25.85  26.21  26.50  30.98  32.21  36.66
         40.75  42.76  45.56  46.40  49.81  50.08  54.44  55.55  64.44  66.26
         66.55  67.78  71.09  75.80  78.64  82.72  97.42  98.50 112.63 123.46
        128.82 161.91
 132  1 -24.40 -20.21 -17.29 -12.48 -11.58  -8.71  -8.52  -7.91  -2.77   1.74
          2.39   3.12   3.55   5.58   5.83   7.74   8.01   8.98  10.59  12.67
         13.97  18.71  19.21  21.55  25.95  26.34  26.53  30.87  32.22  36.56
         40.77  42.60  45.60  46.36  49.71  50.21  54.51  56.22  64.37  66.32
         67.78  68.17  71.71  76.22  78.70  82.54  97.47  98.85 112.24 123.13
        128.48 162.32
 133  1 -24.41 -20.15 -17.36 -12.50 -11.58  -8.67  -8.50  -7.87  -2.83   1.73
          2.37   3.11   3.50   5.57   5.88   7.71   8.09   9.03  10.56  12.60
         14.02  18.71  19.20  21.54  26.04  26.48  26.55  30.77  32.20  36.47
         40.79  42.46  45.63  46.33  49.61  50.33  54.59  56.82  64.31  66.38
         68.51  68.60  72.74  76.75  78.74  82.36  97.51  99.22 111.86 122.76
        128.23 162.76
 134  1 -24.42 -20.09 -17.44 -12.51 -11.57  -8.62  -8.47  -7.83  -2.89   1.72
          2.35   3.10   3.45   5.56   5.91   7.69   8.16   9.08  10.54  12.53
         14.07  18.71  19.19  21.52  26.12  26.58  26.62  30.67  32.17  36.39
         40.82  42.32  45.66  46.29  49.51  50.45  54.67  57.35  64.26  66.44
         68.82  69.06  74.11  77.40  78.77  82.17  97.54  99.58 111.46 122.36
        128.04 163.23
 135  1 -24.43 -20.04 -17.52 -12.52 -11.57  -8.58  -8.45  -7.78  -2.95   1.71
          2.32   3.09   3.41   5.55   5.95   7.66   8.24   9.13  10.51  12.46
         14.12  18.71  19.19  21.50  26.20  26.61  26.77  30.58  32.13  36.33
         40.84  42.18  45.69  46.25  49.41  50.56  54.76  57.82  64.21  66.49
         69.07  69.31  75.65  78.16  78.80  81.98  97.58  99.96 111.06 121.94
        127.92 163.73
 136  1 -24.44 -19.98 -17.59 -12.54 -11.57  -8.54  -8.43  -7.74  -3.01   1.71
          2.30   3.07   3.36   5.54   5.99   7.64   8.31   9.18  10.47  12.40
         14.17  18.71  19.18  21.49  26.27  26.63  26.91  30.49  32.07  36.28
         40.86  42.06  45.71  46.22  49.31  50.67  54.86  58.23  64.17  66.54
         69.27  69.46  77.25  78.82  79.02  81.79  97.61 100.34 110.66 121.52
        127.83 164.25
 137  1 -24.45 -19.92 -17.66 -12.55 -11.56  -8.50  -8.40  -7.71  -3.06   1.70
          2.28   3.06   3.32   5.54   6.02   7.62   8.38   9.22  10.44  12.33
         14.22  18.71  19.18  21.47  26.34  26.66  27.06  30.41  31.99  36.24
         40.88  41.94  45.74  46.18  49.22  50.77  54.96  58.59  64.13  66.59
         69.42  69.56  78.83  78.83  79.96  81.61  97.64 100.74 110.24 121.10
        127.78 164.78
 138  1 -24.46 -19.86 -17.74 -12.56 -11.56  -8.46  -8.38  -7.67  -3.11   1.69
          2.27   3.05   3.29   5.53   6.05   7.60   8.46   9.27  10.40  12.27
         14.26  18.71  19.18  21.46  26.41  26.68  27.21  30.34  31.90  36.21
         40.90  41.83  45.76  46.15  49.12  50.86  55.07  58.90  64.09  66.63
         69.53  69.63  78.84  80.31  80.90  81.55  97.66 101.15 109.83 120.70
        127.76 165.32
 139  1 -24.47 -19.81 -17.81 -12.57 -11.56  -8.43  -8.37  -7.64  -3.16   1.69
          2.25   3.05   3.25   5.52   6.08   7.58   8.53   9.31  10.36  12.22
         14.30  18.71  19.17  21.45  26.47  26.70  27.36  30.27  31.80  36.19
         40.92  41.73  45.78  46.12  49.03  50.95  55.17  59.17  64.06  66.68
         69.61  69.68  78.85  80.94  81.98  82.17  97.69 101.57 109.41 120.31
        127.75 165.87
 140  1 -24.48 -19.75 -17.88 -12.58 -11.55  -8.40  -8.35  -7.60  -3.20   1.68
          2.23   3.04   3.22   5.52   6.10   7.57   8.60   9.35  10.32  12.16
         14.34  18.71  19.17  21.43  26.52  26.72  27.52  30.20  31.69  36.18
         40.94  41.63  45.80  46.09  48.95  51.03  55.27  59.40  64.03  66.71
         69.66  69.72  78.85  80.84  83.12  83.39  97.71 102.01 108.98 119.95
        127.75 166.42
 141  1 -24.49 -19.70 -17.94 -12.59 -11.55  -8.37  -8.33  -7.57  -3.24   1.68
          2.22   3.03   3.19   5.51   6.13   7.55   8.66   9.39  10.28  12.11
         14.38  18.71  19.17  21.42  26.57  26.74  27.67  30.14  31.56  36.17
         40.96  41.55  45.82  46.07  48.87  51.11  55.37  59.60  64.01  66.75
         69.70  69.75  78.85  80.68  84.18  84.67  97.72 102.45 108.56 119.62
        127.76 166.96
 142  1 -24.49 -19.64 -18.01 -12.60 -11.55  -8.35  -8.32  -7.54  -3.28   1.67
          2.21   3.02   3.16   5.51   6.15   7.54   8.73   9.43  10.24  12.06
         14.41  18.71  19.17  21.41  26.62  26.76  27.82  30.09  31.43  36.17
         40.98  41.47  45.83  46.05  48.80  51.18  55.47  59.77  63.99  66.78
         69.72  69.77  78.85  80.51  85.21  85.84  97.74 102.90 108.14 119.32
        127.77 167.48
 143  1 -24.50 -19.59 -18.07 -12.60 -11.55  -8.32  -8.30  -7.52  -3.31   1.67
          2.20   3.02   3.13   5.51   6.17   7.53   8.79   9.47  10.20  12.02
         14.44  18.71  19.17  21.40  26.66  26.77  27.97  30.04  31.30  36.17
         40.99  41.40  45.85  46.03  48.73  51.24  55.56  59.92  63.97  66.80
         69.74  69.79  78.84  80.34  86.20  86.88  97.75 103.35 107.72 119.05
        127.79 167.97
 144  1 -24.50 -19.54 -18.13 -12.61 -11.54  -8.31  -8.29  -7.50  -3.34   1.67
          2.19   3.01   3.11   5.50   6.19   7.52   8.85   9.50  10.16  11.98
         14.47  18.71  19.17  21.40  26.70  26.79  28.12  30.00  31.16  36.18
         41.01  41.33  45.86  46.01  48.67  51.29  55.64  60.04  63.96  66.83
         69.75  69.80  78.84  80.19  87.14  87.80  97.77 103.79 107.32 118.81
        127.81 168.43
 145  1 -24.51 -19.49 -18.18 -12.61 -11.54  -8.29  -8.28  -7.47  -3.37   1.66
          2.18   3.01   3.09   5.50   6.20   7.51   8.90   9.53  10.12  11.94
         14.50  18.71  19.17  21.39  26.73  26.80  28.27  29.96  31.02  36.19
         41.02  41.28  45.87  45.99  48.62  51.34  55.72  60.15  63.94  66.85
         69.75  69.81  78.84  80.05  88.01  88.59  97.78 104.21 106.94 118.60
        127.83 168.85
 146  1 -24.51 -19.45 -18.23 -12.62 -11.54  -8.28  -8.26  -7.46  -3.39   1.66
          2.17   3.00   3.07   5.50   6.21   7.50   8.95   9.55  10.09  11.91
         14.52  18.71  19.17  21.38  26.75  26.81  28.41  29.93  30.89  36.20
         41.03  41.23  45.88  45.98  48.58  51.38  55.79  60.24  63.93  66.87
         69.75  69.81  78.83  79.92  88.78  89.25  97.78 104.60 106.58 118.42
        127.84 169.22
 147  1 -24.52 -19.41 -18.27 -12.62 -11.54  -8.28  -8.25  -7.44  -3.41   1.66
          2.16   3.00   3.06   5.49   6.22   7.50   8.99   9.57  10.06  11.88
         14.53  18.71  19.17  21.38  26.77  26.82  28.53  29.91  30.77  36.21
         41.04  41.20  45.89  45.97  48.54  51.41  55.84  60.30  63.92  66.88
         69.75  69.82  78.83  79.82  89.45  89.77  97.79 104.94 106.26 118.28
        127.86 169.53
 148  1 -24.52 -19.38 -18.31 -12.63 -11.54  -8.27  -8.24  -7.43  -3.43   1.66
          2.16   3.00   3.05   5.49   6.23   7.49   9.03   9.59  10.03  11.86
         14.55  18.71  19.17  21.37  26.79  26.83  28.65  29.89  30.66  36.21
         41.04  41.17  45.89  45.96  48.51  51.44  55.89  60.36  63.92  66.89
         69.75  69.82  78.82  79.74  89.99  90.18  97.80 105.22 106.00 118.17
        127.87 169.78
 149  1 -24.52 -19.36 -18.34 -12.63 -11.54  -8.27  -8.23  -7.42  -3.44   1.66
          2.16   2.99   3.04   5.49   6.24   7.49   9.05   9.60  10.01  11.85
         14.56  18.71  19.17  21.37  26.80  26.83  28.74  29.87  30.57  36.22
[...]
         59.82  65.11  70.75  78.27  86.48  89.26 107.28 128.74 129.18 132.35
        146.57 169.00
  83  1 -22.51 -18.62 -17.15 -15.05 -13.41 -11.19 -10.25  -6.15  -4.06   0.99
          3.53   4.58   6.96   7.02   7.34   7.82   8.52   9.57  11.92  13.29
         15.20  15.80  16.34  16.90  19.30  19.83  22.53  24.87  25.73  30.30
         37.21  41.86  42.15  42.42  43.80  47.30  51.80  53.70  57.77  58.61
         58.88  66.87  69.85  77.27  82.47  89.77 106.71 122.92 124.58 131.24
        152.18 161.52
  84  1 -21.68 -18.62 -17.52 -14.63 -14.54 -12.09  -9.32  -6.31  -3.96  -0.48
          4.12   5.84   6.48   7.25   7.54   8.40   8.74   9.79  13.03  13.49
         14.60  14.91  16.15  17.14  18.87  19.24  20.99  22.49  26.13  29.51
         36.07  36.97  41.82  43.10  44.24  47.49  50.00  54.07  56.85  58.31
         64.06  65.91  70.33  76.42  88.36  94.82 106.07 121.64 128.01 133.20
        148.26 165.28
  85  1 -21.56 -18.73 -17.80 -15.09 -13.94 -11.75  -9.19  -6.56  -3.81  -0.78
          3.40   5.57   6.03   7.67   7.75   8.85   9.38   9.90  12.72  13.17
         14.60  14.76  16.66  18.10  18.85  19.14  20.43  23.75  26.82  30.33
         34.83  35.47  40.45  44.52  45.79  47.49  48.72  54.38  55.63  57.07
         63.73  65.17  68.39  75.06  85.12  94.81 104.88 119.92 124.75 134.28
        143.53 154.21
  86  1 -21.38 -19.03 -17.84 -15.56 -13.33 -11.47  -9.02  -6.87  -3.61  -1.15
          2.82   4.69   6.31   7.99   8.15   8.87   9.93  10.26  12.46  12.86
         14.46  14.68  17.25  18.82  18.92  19.37  20.00  25.38  27.79  31.52
         33.63  33.99  39.09  44.64  45.96  47.41  49.56  53.92  54.76  55.13
         63.47  64.80  66.54  73.30  80.34  94.89 103.21 117.06 123.22 133.02
        139.44 142.75
  87  1 -21.16 -19.43 -17.70 -16.01 -12.74 -11.32  -8.80  -7.21  -3.36  -1.55
          2.43   3.88   6.66   8.25   8.57   8.71  10.01  10.87  12.32  12.75
         14.14  14.58  17.90  18.77  18.85  19.75  20.74  27.13  29.03  32.58
         32.62  32.73  38.16  41.79  47.33  48.80  49.07  52.27  52.77  55.41
         63.50  64.69  65.30  71.26  76.26  95.14 101.25 111.68 123.50 129.09
        134.09 136.58
  88  1 -20.89 -19.84 -17.47 -16.44 -12.20 -11.31  -8.54  -7.56  -3.07  -1.95
          2.27   3.20   7.07   8.38   8.51   8.82  10.21  10.99  12.39  13.04
         13.68  14.37  18.53  18.72  18.77  19.61  22.50  28.21  30.45  31.75
         31.84  32.38  37.95  39.22  47.69  48.53  49.68  51.71  52.30  55.52
         64.08  64.68  64.75  69.10  75.27  95.68  98.79 102.26 124.64 125.46
        129.21 133.99
  89  1 -20.58 -20.23 -17.18 -16.82 -11.77 -11.47  -8.24  -7.90  -2.73  -2.34
          2.35   2.68   7.51   7.96   8.72   8.85  10.48  10.78  12.70  13.16
         13.55  14.01  18.68  18.74  19.05  19.41  24.67  27.07  31.29  31.38
         31.76  32.24  37.09  37.34  49.16  49.43  49.88  50.68  53.52  54.97
         64.60  64.68  65.30  67.01  79.02  88.56  96.60  98.13 124.01 124.42
        129.02 131.34
  90  1 -20.58 -20.23 -17.17 -16.83 -11.78 -11.46  -8.23  -7.91  -2.71  -2.36
          2.36   2.67   7.51   7.96   8.73   8.85  10.49  10.78  12.70  13.17
         13.52  14.04  18.68  18.74  19.05  19.41  24.69  27.02  31.28  31.38
         31.82  32.20  37.04  37.39  49.20  49.44  49.87  50.66  53.51  54.97
         64.60  64.68  65.24  67.08  78.94  88.63  96.73  98.00 124.06 124.37
        129.01 131.36
  91  1 -20.89 -19.84 -17.46 -16.45 -12.22 -11.30  -8.53  -7.57  -3.05  -1.97
          2.27   3.19   7.07   8.38   8.51   8.81  10.22  10.99  12.39  13.01
         13.69  14.39  18.53  18.72  18.78  19.61  22.52  28.13  30.52  31.74
         31.85  32.38  37.90  39.29  47.74  48.54  49.66  51.70  52.28  55.51
         64.02  64.60  64.83  69.17  75.19  95.80  98.72 102.25 124.61 125.51
        129.19 134.01
  92  1 -21.16 -19.43 -17.69 -16.02 -12.75 -11.31  -8.79  -7.22  -3.34  -1.56
          2.43   3.88   6.66   8.25   8.56   8.71  10.02  10.86  12.32  12.73
         14.15  14.60  17.90  18.80  18.83  19.75  20.75  27.07  29.09  32.56
         32.61  32.74  38.12  41.87  47.34  48.78  49.12  52.24  52.77  55.40
         63.46  64.61  65.38  71.33  76.17  95.26 101.14 111.70 123.49 129.14
        134.05 136.65
  93  1 -21.38 -19.03 -17.82 -15.57 -13.34 -11.46  -9.01  -6.88  -3.59  -1.16
          2.82   4.69   6.30   7.99   8.14   8.86   9.95  10.25  12.45  12.84
         14.48  14.69  17.26  18.86  18.90  19.37  19.99  25.35  27.84  31.50
         33.61  33.99  39.05  44.73  45.97  47.38  49.60  53.93  54.73  55.11
         63.44  64.72  66.60  73.36  80.24  94.99 103.11 117.06 123.23 133.00
        139.52 142.77
  94  1 -21.56 -18.74 -17.78 -15.09 -13.95 -11.73  -9.19  -6.58  -3.79  -0.79
          3.41   5.57   6.03   7.66   7.75   8.84   9.37   9.92  12.72  13.15
         14.61  14.76  16.67  18.12  18.89  19.11  20.42  23.72  26.85  30.31
         34.81  35.47  40.41  44.53  45.76  47.59  48.75  54.37  55.61  57.06
         63.70  65.10  68.42  75.11  85.01  94.89 104.79 119.90 124.76 134.21
        143.66 154.22
  95  1 -21.68 -18.63 -17.50 -14.63 -14.55 -12.08  -9.32  -6.33  -3.95  -0.49
          4.13   5.84   6.48   7.24   7.54   8.38   8.73   9.81  13.03  13.48
         14.61  14.91  16.16  17.15  18.91  19.22  20.98  22.47  26.16  29.50
         36.06  36.97  41.79  43.11  44.21  47.51  50.09  54.05  56.85  58.30
         64.05  65.85  70.36  76.46  88.26  94.87 106.01 121.61 128.01 133.13
        148.37 165.27
  96  1 -21.76 -18.62 -17.13 -15.06 -14.23 -12.42  -9.40  -6.16  -4.04  -0.28
          4.86   5.80   6.95   7.34   7.41   7.42   8.51   9.58  13.29  13.73
         14.55  15.20  15.80  16.35  18.90  19.29  21.47  21.70  25.75  29.05
         37.19  38.23  41.87  42.99  43.15  46.10  51.87  53.70  57.77  58.89
         64.32  66.80  71.81  77.30  89.89  94.85 106.66 122.90 131.18 131.58
        152.26 172.66
  97  1 -21.78 -18.62 -16.95 -15.28 -14.05 -12.58  -9.42  -6.10  -4.08  -0.21
          5.19   5.98   6.81   6.85   7.36   8.05   8.08   9.45  13.39  13.82
         14.53  15.58  15.67  15.81  18.89  19.32  21.44  21.66  25.61  28.91
         37.76  38.78  41.28  42.47  44.31  44.91  52.60  53.44  58.10  59.07
         64.42  67.29  72.34  77.58  90.38  94.84 106.86 123.58 130.10 133.17
        153.78 175.18
  98  1 -21.76 -18.62 -17.14 -15.05 -14.23 -12.42  -9.40  -6.15  -4.05  -0.28
          4.86   5.79   6.96   7.30   7.41   7.47   8.52   9.57  13.29  13.73
         14.55  15.21  15.80  16.35  18.88  19.30  21.47  21.71  25.73  29.06
         37.21  38.23  41.86  43.00  43.18  46.08  51.80  53.73  57.77  58.89
         64.33  66.84  71.80  77.28  89.94  94.83 106.69 122.92 131.22 131.58
        152.20 172.67
  99  1 -20.80 -19.73 -16.31 -15.32 -14.29 -13.40  -8.34  -7.22  -2.97  -1.68
          5.70   6.54   7.10   7.44   7.67   7.99   8.09   8.79  12.77  13.10
         14.99  15.46  17.02  17.30  17.85  19.26  19.48  20.25  26.83  28.19
         36.19  36.24  42.89  43.27  44.53  47.57  47.81  50.57  57.29  58.03
         69.76  70.12  71.91  74.31  96.37 100.32 104.26 107.95 131.97 132.56
        164.38 171.86
 100  1 -20.72 -19.66 -16.75 -15.75 -13.81 -12.98  -8.28  -7.21  -3.08  -1.86
          4.82   5.62   7.20   7.71   7.87   8.31   8.88   9.34  12.69  13.11
         14.64  15.01  17.39  17.84  18.22  19.11  19.51  20.66  27.25  28.63
         35.09  35.15  43.01  44.13  44.53  46.16  48.90  51.60  56.77  57.58
         68.05  69.31  69.85  73.64  96.35 100.19 103.49 109.10 130.73 132.03
        158.15 165.07
 101  1 -20.60 -19.56 -17.24 -16.23 -13.27 -12.53  -8.19  -7.20  -3.22  -2.11
          3.98   4.72   7.39   8.11   8.16   8.50   9.66   9.79  12.53  13.06
         14.28  14.71  17.58  18.51  18.59  18.98  19.77  21.51  27.98  29.41
         33.77  33.87  41.30  44.14  45.68  46.15  50.04  52.42  56.03  56.83
         66.01  67.52  68.63  72.60  95.92  99.83 102.45 110.51 128.56 131.57
        148.38 154.00
 102  1 -20.44 -19.43 -17.70 -16.71 -12.74 -12.11  -8.06  -7.21  -3.36  -2.41
          3.24   3.88   7.65   8.50   8.56   8.71  10.01  10.23  12.32  12.93
         14.05  14.58  17.90  18.64  18.86  18.96  20.74  22.86  29.04  30.53
         32.46  32.60  39.38  41.79  47.32  47.86  50.77  52.79  55.40  55.86
         64.68  65.69  67.82  71.27  94.00  98.94 101.25 111.63 126.39 129.16
        136.58 140.96
 103  1 -20.23 -19.30 -18.09 -17.17 -12.26 -11.78  -7.91  -7.24  -3.46  -2.71
          2.67   3.17   7.96   8.85   8.93   9.01  10.02  10.49  12.10  12.69
         14.03  14.57  18.31  18.68  18.85  19.05  22.30  24.70  30.41  31.32
         31.48  31.81  37.39  39.23  48.89  49.45  50.65  52.27  54.98  55.35
         64.09  64.60  67.06  69.80  88.63  98.00 100.02 109.34 119.57 124.04
        131.32 131.62
 104  1 -19.98 -19.26 -18.30 -17.59 -11.87 -11.57  -7.75  -7.32  -3.48  -3.00
          2.30   2.62   8.31   9.05   9.17   9.35   9.97  10.48  11.93  12.39
         14.18  14.58  18.67  18.74  18.79  19.18  24.34  26.94  30.47  30.62
         31.87  32.09  36.31  36.82  49.29  50.21  50.67  51.03  54.87  55.65
         63.94  64.13  66.58  68.36  81.76  95.86  97.54  98.92 117.38 121.55
        127.84 129.77
 105  1 -19.71 -19.43 -18.22 -17.94 -11.61 -11.52  -7.59  -7.43  -3.41  -3.23
          2.16   2.28   8.66   8.95   9.41   9.50  10.07  10.30  11.93  12.10
         14.38  14.53  18.67  18.75  19.07  19.22  26.79  28.79  30.03  30.14
         30.71  32.01  35.85  36.46  48.36  49.43  51.07  51.27  55.36  55.74
         63.95  63.99  66.59  67.20  78.99  83.65  97.53  98.09 118.25 119.70
        127.47 128.34
 106  1 -19.70 -19.44 -18.21 -17.96 -11.63 -11.50  -7.58  -7.44  -3.39  -3.25
          2.16   2.28   8.66   8.94   9.42   9.49  10.09  10.29  11.93  12.11
         14.35  14.55  18.68  18.73  19.07  19.22  26.84  28.69  30.03  30.13
         30.71  32.07  35.90  36.40  48.40  49.39  51.09  51.24  55.34  55.75
         63.89  64.05  66.54  67.26  78.96  83.67  97.65  97.97 118.32 119.63
        127.45 128.35
 107  1 -19.98 -19.27 -18.28 -17.60 -11.89 -11.56  -7.74  -7.33  -3.46  -3.02
          2.30   2.62   8.31   9.04   9.18   9.34   9.99  10.47  11.93  12.40
         14.16  14.60  18.72  18.74  18.75  19.18  24.37  26.89  30.48  30.61
         31.92  32.07  36.26  36.88  49.33  50.23  50.65  51.00  54.85  55.66
         63.86  64.21  66.53  68.42  81.71  95.89  97.66  98.80 117.44 121.51
        127.82 129.78
 108  1 -20.23 -19.30 -18.08 -17.18 -12.27 -11.77  -7.90  -7.26  -3.44  -2.73
          2.67   3.17   7.96   8.85   8.92   9.00  10.03  10.48  12.09  12.70
         14.01  14.59  18.31  18.73  18.80  19.05  22.32  24.67  30.47  31.32
         31.47  31.77  37.34  39.31  48.91  49.42  50.69  52.24  54.95  55.36
         64.01  64.68  67.02  69.85  88.56  98.11  99.90 109.43 119.58 124.08
        131.32 131.58
 109  1 -20.44 -19.43 -17.69 -16.72 -12.75 -12.10  -8.06  -7.22  -3.34  -2.42
          3.25   3.88   7.65   8.50   8.56   8.71  10.02  10.22  12.31  12.94
         14.03  14.60  17.91  18.69  18.81  18.95  20.76  22.83  29.08  30.49
         32.46  32.59  39.33  41.87  47.35  47.83  50.81  52.75  55.41  55.84
         64.62  65.74  67.79  71.32  93.94  98.99 101.14 111.72 126.44 129.13
        136.62 140.93
 110  1 -20.60 -19.56 -17.23 -16.24 -13.28 -12.52  -8.18  -7.21  -3.21  -2.12
          3.98   4.71   7.39   8.10   8.16   8.49   9.65   9.81  12.52  13.08
         14.26  14.72  17.59  18.55  18.56  18.97  19.78  21.48  28.01  29.38
         33.77  33.86  41.25  44.22  45.71  46.12  50.07  52.39  56.04  56.81
         65.96  67.56  68.60  72.63  95.90  99.82 102.35 110.58 128.60 131.51
        148.46 153.95
 111  1 -20.72 -19.66 -16.74 -15.75 -13.82 -12.97  -8.28  -7.22  -3.07  -1.86
          4.83   5.62   7.20   7.71   7.87   8.30   8.87   9.36  12.68  13.12
         14.62  15.02  17.40  17.81  18.26  19.10  19.51  20.64  27.27  28.61
         35.09  35.15  42.96  44.16  44.51  46.23  48.93  51.56  56.78  57.57
         68.03  69.30  69.87  73.66  96.35 100.17 103.41 109.15 130.76 131.97
        158.24 165.01
 112  1 -20.80 -19.73 -16.30 -15.33 -14.29 -13.39  -8.34  -7.22  -2.96  -1.69
          5.70   6.54   7.10   7.44   7.67   7.99   8.07   8.81  12.77  13.11
         14.98  15.47  17.01  17.31  17.88  19.26  19.48  20.24  26.84  28.18
         36.19  36.24  42.91  43.25  44.49  47.59  47.88  50.53  57.30  58.03
         69.76  70.12  71.92  74.32  96.37 100.32 104.21 107.99 131.93 132.57
        164.44 171.81
 113  1 -20.82 -19.75 -16.10 -15.13 -14.51 -13.59  -8.36  -7.23  -2.92  -1.62
          6.25   7.20   7.26   7.28   7.35   7.60   7.67   8.57  12.80  13.10
         15.15  15.83  16.53  17.28  17.68  19.33  19.48  20.14  26.70  28.04
         36.66  36.71  42.37  42.74  45.60  46.54  48.93  49.65  57.48  58.19
         69.92  71.03  72.75  74.54  96.35 100.37 104.57 107.49 131.87 133.32
        166.57 174.08
siesta: Fermi energy =      -5.082844 eV
siesta: PDOS info: 
siesta: e1, e2, sigma, nhist:   -10.00 eV    3.00 eV    0.10 eV   2000

siesta: Program's energy decomposition (eV):
siesta: Ebs     =      -227.634318
siesta: Eions   =      1264.537926
siesta: Ena     =       429.566997
siesta: Ekin    =       436.965170
siesta: Enl     =        -6.447805
siesta: DEna    =       -26.434460
siesta: DUscf   =         1.949305
siesta: DUext   =         0.000000
siesta: Exc     =      -192.469477
siesta: eta*DQ  =         0.000000
siesta: Emadel  =         0.000000
siesta: Emeta   =         0.000000
siesta: Emolmec =         0.000000
siesta: Ekinion =         0.000000
siesta: Eharris =      -621.408199
siesta: Etot    =      -621.408195
siesta: FreeEng =      -621.409424

siesta: Final energy (eV):
siesta:  Band Struct. =    -227.634318
siesta:       Kinetic =     436.965170
siesta:       Hartree =    2151.954387
siesta:    Ext. field =       0.000000
siesta:   Exch.-corr. =    -192.469477
siesta:  Ion-electron =   -4722.547008
siesta:       Ion-ion =    1704.688732
siesta:       Ekinion =       0.000000
siesta:         Total =    -621.408195

siesta: Atomic forces (eV/Ang):
siesta:      1   -0.038018   -0.112294   -0.000444
siesta:      2   -0.152198   -0.040703    0.000126
siesta:      3    0.163560    0.047634   -0.001570
siesta:      4    0.061382    0.107915    0.000096
siesta: ----------------------------------------
siesta:    Tot    0.034726    0.002551   -0.001792

siesta: Stress tensor (static) (eV/Ang**3):
siesta:    -0.014993    0.000205   -0.000011
siesta:     0.000205   -0.015179   -0.000001
siesta:    -0.000011   -0.000001    0.000009

siesta: Cell volume =        159.196765 Ang**3

siesta: Pressure (static):
siesta:                Solid            Molecule  Units
siesta:           0.00010950          0.00009856  Ry/Bohr**3
siesta:           0.01005405          0.00904926  eV/Ang**3
siesta:          16.10854517         14.49866655  kBar
(Free)E+ p_basis*V_orbitals  =        -618.716899
(Free)Eharris+ p_basis*V_orbitals  =        -618.717208

siesta: Electric dipole (a.u.)  =    0.000000    0.000000   -0.000027
siesta: Electric dipole (Debye) =    0.000000    0.000000   -0.000068

* Maximum dynamic memory allocated : Node    0 =    29 MB
* Maximum dynamic memory allocated : Node    1 =    39 MB
* Maximum dynamic memory allocated : Node    2 =    21 MB

* Maximum memory occured during pdosk                         

timer: CPU execution times:
timer:  Routine       Calls   Time/call    Tot.time        %
timer:  siesta            1    2182.481    2182.481   100.00
timer:  Setup             1      22.061      22.061     1.01
timer:  bands             3      13.556      40.667     1.86
timer:  writewave         1       0.001       0.001     0.00
timer:  KSV_init          1       0.000       0.000     0.00
timer:  IterMD            1      43.501      43.501     1.99
timer:  hsparse           1       0.011       0.011     0.00
timer:  overlap           1       0.377       0.377     0.02
timer:  IterSCF           1      30.574      30.574     1.40
timer:  kinefsm           2       0.189       0.379     0.02
timer:  nlefsm            2       1.808       3.616     0.17
timer:  DHSCF             3       5.321      15.964     0.73
timer:  DHSCF1            1       0.169       0.169     0.01
timer:  DHSCF2            1       1.978       1.978     0.09
timer:  REORD            30       0.000       0.005     0.00
timer:  POISON            4       0.177       0.709     0.03
timer:  DHSCF3            3       3.926      11.777     0.54
timer:  rhoofd            3       1.239       3.717     0.17
timer:  cellXC            3       0.048       0.145     0.01
timer:  vmat              2       1.620       3.240     0.15
timer:  MolMec            2       0.000       0.000     0.00
timer:  diagon            1      20.776      20.776     0.95
timer:  c-eigval        619       0.089      54.830     2.51
timer:  c-buildHS       619       0.002       1.413     0.06
timer:  cdiag         12058       0.151    1825.362    83.64
timer:  cdiag1        12058       0.029     350.436    16.06
timer:  cdiag2        12058       0.018     222.201    10.18
timer:  cdiag3        12058       0.082     983.157    45.05
timer:  cdiag4        12058       0.005      57.844     2.65
timer:  c-eigvec        113       0.043       4.907     0.22
timer:  c-buildD        113       0.003       0.340     0.02
timer:  DHSCF4            1       2.038       2.038     0.09
timer:  dfscf             1       1.913       1.913     0.09
timer:  overfsm           1       0.020       0.020     0.00
timer:  pdos              1    2074.123    2074.123    95.04
timer:  optical           1       0.544       0.544     0.02
  

elaps: ELAPSED times:
elaps:  Routine       Calls   Time/call    Tot.time        %
elaps:  siesta            1    1671.700    1671.700   100.00
elaps:  Setup             1      16.556      16.556     0.99
elaps:  bands             3      10.383      31.149     1.86
elaps:  writewave         1       0.000       0.000     0.00
elaps:  KSV_init          1       0.000       0.000     0.00
elaps:  IterMD            1      33.716      33.716     2.02
elaps:  hsparse           1       0.004       0.004     0.00
elaps:  overlap           1       0.287       0.287     0.02
elaps:  IterSCF           1      23.397      23.397     1.40
elaps:  kinefsm           2       0.130       0.259     0.02
elaps:  nlefsm            2       1.559       3.119     0.19
elaps:  DHSCF             3       4.010      12.031     0.72
elaps:  DHSCF1            1       0.166       0.166     0.01
elaps:  DHSCF2            1       1.438       1.438     0.09
elaps:  REORD            30       0.000       0.003     0.00
elaps:  POISON            4       0.138       0.552     0.03
elaps:  DHSCF3            3       3.092       9.275     0.55
elaps:  rhoofd            3       0.726       2.178     0.13
elaps:  cellXC            3       0.044       0.132     0.01
elaps:  vmat              2       1.347       2.694     0.16
elaps:  MolMec            2       0.000       0.000     0.00
elaps:  diagon            1      15.914      15.914     0.95
elaps:  c-eigval        619       0.070      43.162     2.58
elaps:  c-buildHS       619       0.002       1.115     0.07
elaps:  cdiag         12058       0.116    1393.773    83.37
elaps:  cdiag1        12058       0.022     266.462    15.94
elaps:  cdiag2        12058       0.014     169.350    10.13
elaps:  cdiag3        12058       0.063     755.965    45.22
elaps:  cdiag4        12058       0.003      39.541     2.37
elaps:  c-eigvec        113       0.032       3.668     0.22
elaps:  c-buildD        113       0.002       0.174     0.01
elaps:  DHSCF4            1       1.150       1.150     0.07
elaps:  dfscf             1       1.072       1.072     0.06
elaps:  overfsm           1       0.017       0.017     0.00
elaps:  pdos              1    1588.007    1588.007    94.99
elaps:  optical           1       0.000       0.000     0.00
  
>> End of run:  24-SEP-2015  16:18:36
