Siesta Version:                                        siesta-3.2-pl-5
Architecture  : x86_64-unknown-linux-gnu--unknown
Compiler flags: mpif90 -g -O2
PARALLEL version

* Running in serial mode with MPI
>> Start of run:  19-OCT-2015   9:26:59

                           ***********************       
                           *  WELCOME TO SIESTA  *       
                           ***********************       

reinit: Reading from standard input
************************** Dump of input data file ****************************
SystemName    graphene
SystemLabel   graphene
# ============= Atomic informations ===============
NumberOfAtoms        5
NumberOfSpecies      1
%block ChemicalSpeciesLabel
 1    6  C
%endblock ChemicalSpeciesLabel
# ======== lattice, cell and coordinates ==========
# === lattice constant ===
LatticeConstant   2.475376 Ang
#====== Lattice Vectors - Simulation box ======
%block LatticeVectors
  1.732050808000     1.00000    0.000000
  1.732050808000    -1.00000    0.000000
  0.000              0.000000   1.000000
%endblock LatticeVectors
# === Coordinates and formats (input and output) ===
AtomicCoordinatesFormat Ang
AtomCoorFormatOut  Ang
%block AtomicCoordinatesAndAtomicSpecies
  0.000   0.000   0.000		1
  1.420   0.000   0.000		1
  2.130   1.229   0.000		1
  3.550   1.229   0.000		1
  4.260	  0.000	  0.000		1
%endblock AtomicCoordinatesAndAtomicSpecies
# ============== kspace Grid and cutoff =============
%block kgrid_Monkhorst_Pack
 15   0    0     0.0
 0    15   0     0.0
 0    0    1     0.0
%endblock kgrid_Monkhorst_Pack
MeshCutoff   200  Ry
# ============== Block to create supercells  =============
#%blockSuperCell
# 1   0   0
# 1   1   0
# 0   0   9
#%endblockSuperCell
#==== hold some atoms in the CG relaxation ====
#%block GeometryConstraints
#position from  1 to  180
#%endblock GeometryConstraints
#============== General variables ===================
#= Basis =
PAO.BasisSize     DZP
PAO.EnergyShift   0.03 eV
#============== MD variables =====================
# Type of Run              MD, FC, CG
# SCF  calculation         MD.NumCGsteps     0
# Structure relaxation     MD.NumCGsteps     600
#=================================================
MD.TypeOfRun      CG
MD.NumCGsteps     0
MD.MaxForceTol    0.01  eV/Ang
#=================== SCF variables ========================
# SCF max number of iterations - single point calculation.
# Mixing - 0.1 means 10 percent of the previous density.
# Pulay - how many densities will be considered.
# Tolerance - criteria to stop
# =========================================================
MaxSCFIterations      300
DM.MixingWeight       0.04
DM.NumberPulay        3
DM.Tolerance           1.d-4
#== Functional ==
XC.functional       LDA
XC.authors          CA
#======== Solution method =====================
# diagon, order-N or transiesta (transiesta)
#----------------------------------------------
# If the system is periodic and has many kpt
# ParallelOverK    .true.
#==============================================
SolutionMethod  diagon
#====================== Electronic temperature (FD or MP) ====================
#=============== determines the occupation of the electronic states ==========
#=============================================================================
OccupationFunction     FD
ElectronicTemperature  50 meV
#=============== Write ================
WriteMullikenPop                1
WriteBands                      T
SaveRho                         T
SaveDeltaRho                    T
SaveHS                          .false.
SaveElectrostaticPotential      .false.
SaveTotalPotential              no
WriteCoorXmol                   .true.
WriteMDXmol                     .true.
#WriteMDhistory                  .false.
WriteEigenvalues                yes
#============== Automatic Cell relaxation ==============
#MD.VariableCell   .true.
#========== bands, dos and pdos ====================
%block ProjectedDensityOfStates
-10.00 3.00  0.10 2000 eV
%endblock ProjectedDensityOfStates
%block PDOS.kgrid_Monkhorst_Pack
    150    0     0     0.0
    0    150     0     0.0
    0      0     1     0.0
%endblock PDOS.kgrid_Monkhorst_Pack
BandLineScale  pi/a
%block BandLines
1      1.155   0.667   0.000    K      # 75 point from gamma to X
150    0.000   0.000   0.000    \Gamma # Beguin at gamma
130    1.155   0.000   0.000    M
75     1.155   0.667   0.000    K      # 75 point from gamma to X
150    0.000   0.000   0.000    \Gamma # Beguin at gamma
%endblock BandLines
#========= Reestart the calculation ===============
# XV - coordinates
# DM - density matrix
# CG - last conjugated gradiend step
#==================================================
UseSaveData           .true.
MD.UseSaveXV          .true.
DM.UseSaveDM          .true.
MD.UseSaveCG          .true.
WriteCoorXmol                   .true.
************************** End of input data file *****************************

reinit: -----------------------------------------------------------------------
reinit: System Name: graphene
reinit: -----------------------------------------------------------------------
reinit: System Label: graphene                                                    
reinit: -----------------------------------------------------------------------

initatom: Reading input for the pseudopotentials and atomic orbitals ----------
 Species number:            1  Label: C Atomic number:           6
Ground state valence configuration:   2s02  2p02
Reading pseudopotential information in formatted form from C.psf

Valence configuration for pseudopotential generation:
2s( 2.00) rc: 1.25
2p( 2.00) rc: 1.25
3d( 0.00) rc: 1.25
4f( 0.00) rc: 1.25
For C, standard SIESTA heuristics set lmxkb to 3
 (one more than the basis l, including polarization orbitals).
Use PS.lmax or PS.KBprojectors blocks to override.

<basis_specs>
===============================================================================
C                    Z=   6    Mass=  12.010        Charge= 0.17977+309
Lmxo=1 Lmxkb= 3    BasisType=split      Semic=F
L=0  Nsemic=0  Cnfigmx=2
          n=1  nzeta=2  polorb=0
            splnorm:   0.15000    
               vcte:    0.0000    
               rinn:    0.0000    
                rcs:    0.0000      0.0000    
            lambdas:    1.0000      1.0000    
L=1  Nsemic=0  Cnfigmx=2
          n=1  nzeta=2  polorb=1
            splnorm:   0.15000    
               vcte:    0.0000    
               rinn:    0.0000    
                rcs:    0.0000      0.0000    
            lambdas:    1.0000      1.0000    
-------------------------------------------------------------------------------
L=0  Nkbl=1  erefs: 0.17977+309
L=1  Nkbl=1  erefs: 0.17977+309
L=2  Nkbl=1  erefs: 0.17977+309
L=3  Nkbl=1  erefs: 0.17977+309
===============================================================================
</basis_specs>

atom: Called for C                     (Z =   6)

read_vps: Pseudopotential generation method:
read_vps: ATM3      Troullier-Martins                       
Total valence charge:    4.00000

read_vps: Pseudopotential includes a core correction:
read_vps: Pseudo-core for xc-correction

xc_check: Exchange-correlation functional:
xc_check: Ceperley-Alder
xc_check: WARNING: Pseudopotential generated with GGA Perdew, Burke & Ernzerhof 1996 functional
V l=0 = -2*Zval/r beyond r=  1.3270
V l=1 = -2*Zval/r beyond r=  1.3270
V l=2 = -2*Zval/r beyond r=  1.3270
V l=3 = -2*Zval/r beyond r=  1.3270
All V_l potentials equal beyond r=  1.2311
This should be close to max(r_c) in ps generation
All pots = -2*Zval/r beyond r=  1.3270

VLOCAL1: 99.0% of the norm of Vloc inside     28.641 Ry
VLOCAL1: 99.9% of the norm of Vloc inside     65.273 Ry
atom: Maximum radius for 4*pi*r*r*local-pseudopot. charge    1.48507
atom: Maximum radius for r*vlocal+2*Zval:    1.27815
GHOST: No ghost state for L =  0
GHOST: No ghost state for L =  1
GHOST: No ghost state for L =  2
GHOST: No ghost state for L =  3

KBgen: Kleinman-Bylander projectors: 
   l= 0   rc=  1.466618   el= -0.993243   Ekb=  7.919456   kbcos=  0.278713
   l= 1   rc=  1.485071   el= -0.377706   Ekb= -4.691706   kbcos= -0.274355
   l= 2   rc=  1.641300   el=  0.002326   Ekb= -1.224148   kbcos= -0.005036
   l= 3   rc=  1.747182   el=  0.003420   Ekb= -0.477402   kbcos= -0.000509

KBgen: Total number of  Kleinman-Bylander projectors:   16
atom: -------------------------------------------------------------------------

atom: SANKEY-TYPE ORBITALS:
atom: Selected multiple-zeta basis: split     

SPLIT: Orbitals with angular momentum L= 0

SPLIT: Basis orbitals for state 2s

SPLIT: PAO cut-off radius determined from an
SPLIT: energy shift=  0.002205 Ry

   izeta = 1
                 lambda =    1.000000
                     rc =    5.382558
                 energy =   -0.991266
                kinetic =    0.848090
    potential(screened) =   -1.839356
       potential(ionic) =   -5.389969

   izeta = 2
                 rmatch =    3.518811
              splitnorm =    0.150000
                 energy =   -0.876517
                kinetic =    1.289828
    potential(screened) =   -2.166345
       potential(ionic) =   -5.963401

SPLIT: Orbitals with angular momentum L= 1

SPLIT: Basis orbitals for state 2p

SPLIT: PAO cut-off radius determined from an
SPLIT: energy shift=  0.002205 Ry

   izeta = 1
                 lambda =    1.000000
                     rc =    6.740804
                 energy =   -0.375521
                kinetic =    2.326421
    potential(screened) =   -2.701942
       potential(ionic) =   -6.085463

   izeta = 2
                 rmatch =    3.840617
              splitnorm =    0.150000
                 energy =   -0.259623
                kinetic =    3.462988
    potential(screened) =   -3.722611
       potential(ionic) =   -7.510262

POLgen: Perturbative polarization orbital with L=  2

POLgen: Polarization orbital for state 2p

   izeta = 1
                     rc =    6.740804
                 energy =    0.936005
                kinetic =    1.965355
    potential(screened) =   -1.029351
       potential(ionic) =   -3.693090
atom: Total number of Sankey-type orbitals: 13

atm_pop: Valence configuration (for local Pseudopot. screening):
 2s( 2.00)                                                            
 2p( 2.00)                                                            
Vna: chval, zval:    4.00000   4.00000

Vna:  Cut-off radius for the neutral-atom potential:   6.740804
comcore: Pseudo-core radius Rcore=  1.791422

atom: _________________________________________________________________________

prinput: Basis input ----------------------------------------------------------

PAO.BasisType split     

%block ChemicalSpeciesLabel
    1    6 C                       # Species index, atomic number, species label
%endblock ChemicalSpeciesLabel

%block PAO.Basis                 # Define Basis set
C                     2                    # Species label, number of l-shells
 n=2   0   2                         # n, l, Nzeta 
   5.383      3.519   
   1.000      1.000   
 n=2   1   2 P   1                   # n, l, Nzeta, Polarization, NzetaPol
   6.741      3.841   
   1.000      1.000   
%endblock PAO.Basis

prinput: ----------------------------------------------------------------------

coor:   Atomic-coordinates input format  =     Cartesian coordinates
coor:                                          (in Angstroms)

siesta: WARNING: XV file not found

siesta: Atomic coordinates (Bohr) and species
siesta:      0.00000   0.00000   0.00000  1        1
siesta:      2.68341   0.00000   0.00000  1        2
siesta:      4.02512   2.32247   0.00000  1        3
siesta:      6.70853   2.32247   0.00000  1        4
siesta:      8.05024   0.00000   0.00000  1        5

siesta: System type = bulk      

initatomlists: Number of atoms, orbitals, and projectors:      5    65    80

siesta: ******************** Simulation parameters ****************************
siesta:
siesta: The following are some of the parameters of the simulation.
siesta: A complete list of the parameters used, including default values,
siesta: can be found in file out.fdf
siesta:
redata: Non-Collinear-spin run           =     F
redata: SpinPolarized (Up/Down) run      =     F
redata: Number of spin components        =     1
redata: Long output                      =     F
redata: Number of Atomic Species         =        1
redata: Charge density info will appear in .RHO file
redata: Write Mulliken Pop.              =     Atomic and Orbital charges
redata: Mesh Cutoff                      =   200.0000  Ry
redata: Net charge of the system         =     0.0000 |e|
redata: Max. number of SCF Iter          =      300
redata: Performing Pulay mixing using    =     3 iterations
redata: Mix DM in first SCF step ?       =     F
redata: Write Pulay info on disk?        =     F
redata: Discard 1st Pulay DM after  kick =     F
redata: New DM Mixing Weight             =     0.0400
redata: New DM Occupancy tolerance       = 0.000000000001
redata: No kicks to SCF
redata: DM Mixing Weight for Kicks       =     0.5000
redata: DM Tolerance for SCF             =     0.000100
redata: Require Energy convergence for SCF =     F
redata: DM Energy tolerance for SCF      =     0.000100 eV
redata: Require Harris convergence for SCF =     F
redata: DM Harris energy tolerance for SCF =     0.000100 eV
redata: Using Saved Data (generic)   =     T
redata: Use continuation files for DM    =     T
redata: Neglect nonoverlap interactions  =     F
redata: Method of Calculation            =     Diagonalization
redata: Divide and Conquer               =     T
redata: Electronic Temperature           =     0.0037  Ry
redata: Fix the spin of the system       =     F
redata: Dynamics option                  =     CG coord. optimization
redata: Variable cell                    =     F
redata: Use continuation files for CG    =     T
redata: Max atomic displ per move        =     0.2000  Bohr
redata: Maximum number of CG moves       =        0
redata: Force tolerance                  =     0.0004  Ry/Bohr
redata: ***********************************************************************
Total number of electrons:    20.000000
Total ionic charge:    20.000000

* ProcessorY, Blocksize:    1  24

 Kpoints in:          120 . Kpoints trimmed:          113

siesta: k-grid: Number of k-points =   113
siesta: k-grid: Cutoff (effective) =     1.238 Ang
siesta: k-grid: Supercell and displacements
siesta: k-grid:   15   0   0      0.000
siesta: k-grid:    0  15   0      0.000
siesta: k-grid:    0   0   1      0.000
k-point displ. along   1 input, could be:     0.00    0.50
k-point displ. along   2 input, could be:     0.00    0.50
 Kpoints in:        11400 . Kpoints trimmed:        11326

siesta: PDOS.k-grid: Number of k-points = 11326
siesta: PDOS.k-grid: Cutoff (effective) =     1.238 Ang
siesta: PDOS.k-grid: Supercell and displacements
siesta: PDOS.k-grid:  150   0   0      0.000
siesta: PDOS.k-grid:    0 150   0      0.000
siesta: PDOS.k-grid:    0   0   1      0.000
Naive supercell factors:     4    4    8

superc: Internal auxiliary supercell:     4 x     4 x     8  =     128
superc: Number of atoms, orbitals, and projectors:    640   8320  10240

* Maximum dynamic memory allocated =     1 MB

siesta:                 ==============================
                            Begin CG move =      0
                        ==============================

superc: Internal auxiliary supercell:     4 x     4 x     8  =     128
superc: Number of atoms, orbitals, and projectors:    640   8320  10240

outcell: Unit cell vectors (Ang):
        4.287477    2.475376    0.000000
        4.287477   -2.475376    0.000000
        0.000000    0.000000    2.475376

outcell: Cell vector modules (Ang)   :    4.950752    4.950752    2.475376
outcell: Cell angles (23,13,12) (deg):     90.0000     90.0000     60.0000
outcell: Cell volume (Ang**3)        :     52.5429
New_DM. Step:     1
Initializing Density Matrix...

InitMesh: MESH =    40 x    40 x    24 =       38400
InitMesh: Mesh cutoff (required, used) =   200.000   240.557 Ry

* Maximum dynamic memory allocated =    61 MB

stepf: Fermi-Dirac step function

siesta: Program's energy decomposition (eV):
siesta: Ebs     =      -305.958599
siesta: Eions   =      1580.672407
siesta: Ena     =       548.216689
siesta: Ekin    =       431.921671
siesta: Enl     =        49.864187
siesta: DEna    =         0.000000
siesta: DUscf   =         0.000000
siesta: DUext   =         0.000000
siesta: Exc     =      -223.831677
siesta: eta*DQ  =         0.000000
siesta: Emadel  =         0.000000
siesta: Emeta   =         0.000000
siesta: Emolmec =         0.000000
siesta: Ekinion =         0.000000
siesta: Eharris =      -765.557040
siesta: Etot    =      -774.501537
siesta: FreeEng =      -774.501537

siesta: iscf   Eharris(eV)      E_KS(eV)   FreeEng(eV)   dDmax  Ef(eV)
siesta:    1     -765.5570     -774.5015     -774.5015  1.7630 -6.6921
timer: Routine,Calls,Time,% = IterSCF        1       9.754  60.17
elaps: Routine,Calls,Wall,% = IterSCF        1       9.769  60.18
siesta:    2     -767.3808     -763.3262     -763.3639  1.0915 -5.7648
siesta:    3     -764.7674     -768.1329     -768.1548  0.6358 -6.2156
siesta:    4     -764.6014     -767.1496     -767.1693  0.5337 -6.1603
siesta:    5     -764.3795     -764.7133     -764.7346  0.4911 -5.9843
siesta:    6     -764.3159     -765.0662     -765.0939  0.3070 -6.0250
siesta:    7     -764.3131     -765.0883     -765.1244  0.1933 -6.0466
siesta:    8     -764.3096     -764.3819     -764.4197  0.0546 -6.0524
siesta:    9     -764.3077     -764.3331     -764.3657  0.0492 -6.0606
siesta:   10     -764.2876     -764.3211     -764.3536  0.0471 -6.0933
siesta:   11     -764.2831     -764.3422     -764.3755  0.0339 -6.0984
siesta:   12     -764.2799     -764.3801     -764.4130  0.0287 -6.1007
siesta:   13     -764.2799     -764.3771     -764.4089  0.0274 -6.0988
siesta:   14     -764.2802     -764.3560     -764.3875  0.0234 -6.0938
siesta:   15     -764.2805     -764.3284     -764.3596  0.0186 -6.0907
siesta:   16     -764.2804     -764.2987     -764.3301  0.0131 -6.0893
siesta:   17     -764.2798     -764.2734     -764.3050  0.0118 -6.0919
siesta:   18     -764.2797     -764.2642     -764.2960  0.0123 -6.0938
siesta:   19     -764.2800     -764.2648     -764.2964  0.0090 -6.0949
siesta:   20     -764.2800     -764.2671     -764.2982  0.0070 -6.0944
siesta:   21     -764.2800     -764.2751     -764.3061  0.0042 -6.0920
siesta:   22     -764.2799     -764.2779     -764.3089  0.0038 -6.0911
siesta:   23     -764.2797     -764.2810     -764.3121  0.0036 -6.0903
siesta:   24     -764.2797     -764.2810     -764.3123  0.0032 -6.0904
siesta:   25     -764.2798     -764.2799     -764.3111  0.0040 -6.0909
siesta:   26     -764.2799     -764.2787     -764.3099  0.0046 -6.0910
siesta:   27     -764.2799     -764.2782     -764.3092  0.0041 -6.0908
siesta:   28     -764.2799     -764.2782     -764.3092  0.0022 -6.0904
siesta:   29     -764.2799     -764.2785     -764.3095  0.0014 -6.0902
siesta:   30     -764.2798     -764.2792     -764.3102  0.0013 -6.0904
siesta:   31     -764.2798     -764.2795     -764.3106  0.0013 -6.0905
siesta:   32     -764.2799     -764.2803     -764.3114  0.0016 -6.0909
siesta:   33     -764.2799     -764.2804     -764.3115  0.0015 -6.0909
siesta:   34     -764.2799     -764.2804     -764.3115  0.0009 -6.0907
siesta:   35     -764.2799     -764.2802     -764.3113  0.0007 -6.0904
siesta:   36     -764.2799     -764.2800     -764.3110  0.0007 -6.0903
siesta:   37     -764.2799     -764.2798     -764.3109  0.0006 -6.0903
siesta:   38     -764.2798     -764.2797     -764.3108  0.0005 -6.0903
siesta:   39     -764.2799     -764.2797     -764.3108  0.0004 -6.0905
siesta:   40     -764.2799     -764.2797     -764.3108  0.0004 -6.0905
siesta:   41     -764.2799     -764.2798     -764.3109  0.0003 -6.0905
siesta:   42     -764.2799     -764.2799     -764.3109  0.0003 -6.0904
siesta:   43     -764.2799     -764.2799     -764.3110  0.0003 -6.0903
siesta:   44     -764.2799     -764.2799     -764.3110  0.0003 -6.0903
siesta:   45     -764.2799     -764.2799     -764.3110  0.0002 -6.0903
siesta:   46     -764.2799     -764.2799     -764.3110  0.0002 -6.0904
siesta:   47     -764.2799     -764.2799     -764.3110  0.0001 -6.0904
siesta:   48     -764.2799     -764.2799     -764.3110  0.0001 -6.0904
siesta:   49     -764.2799     -764.2799     -764.3110  0.0001 -6.0904
siesta:   50     -764.2799     -764.2799     -764.3110  0.0001 -6.0904
siesta:   51     -764.2799     -764.2799     -764.3110  0.0001 -6.0904
siesta:   52     -764.2799     -764.2799     -764.3110  0.0001 -6.0904
siesta:   53     -764.2799     -764.2799     -764.3110  0.0001 -6.0904

siesta: E_KS(eV) =             -764.2799

siesta: E_KS - E_eggbox =      -764.2799

siesta: Atomic forces (eV/Ang):
----------------------------------------
   Tot    0.030314   -0.003544   -0.000040
----------------------------------------
   Max    2.091364
   Res    0.836788    sqrt( Sum f_i^2 / 3N )
----------------------------------------
   Max    2.091364    constrained

Stress-tensor-Voigt (kbar):     -194.52     -146.45      475.87      -18.35        0.00        0.00
(Free)E + p*V (eV/cell)     -765.7856
Target enthalpy (eV/cell)     -764.3110

mulliken: Mulliken Atomic and Orbital Populations:

Species: C                   
Atom  Qatom  Qorb
               2s      2s      2py     2pz     2px     2py     2pz     2px     
               2Pdxy   2Pdyz   2Pdz2   2Pdxz   2Pdx2-y2
   1  3.990   0.963   0.378   0.672   0.618   0.554   0.288  -0.053   0.403
              0.054   0.011   0.036   0.010   0.056
   2  3.991   0.894   0.400   0.671   0.612   0.477   0.349  -0.045   0.469
              0.047   0.009   0.032   0.008   0.067
   3  3.994   0.950   0.377   0.703   0.642   0.522   0.305  -0.065   0.394
              0.047   0.009   0.035   0.013   0.063
   4  3.911   0.624   0.487   0.128   0.820   0.168   0.709   0.027   0.679
              0.101   0.003   0.026   0.009   0.133
   5  4.114   1.429   0.203   0.844   0.242   0.933   0.195  -0.034   0.158
              0.041   0.013   0.043   0.005   0.042

mulliken: Qtot =       20.000

* Maximum dynamic memory allocated =    62 MB

coxmol: Writing XMOL coordinates into file graphene.xyz                                                    
Computing bands...

siesta: Band energies (eV):
  ik is    eps
   1  1 -24.91 -23.31 -19.41 -17.30 -14.29 -12.59 -10.45  -8.37  -7.99  -6.58
         -6.40  -5.84  -3.18  -0.28   2.07   2.34   2.92   3.39   4.97   7.16
          7.54   7.74   9.07  10.06  11.75  13.48  14.67  17.15  18.01  20.24
         20.76  21.39  21.77  24.49  26.11  29.24  30.48  30.81  33.81  34.23
         35.05  37.25  37.68  42.94  43.61  46.41  47.69  48.46  49.69  50.39
         53.18  55.40  57.98  65.50  67.15  70.19  70.40  76.09  76.98  78.65
         83.58  86.04 117.81 121.19 148.13
   2  1 -24.92 -23.27 -19.43 -17.37 -14.21 -12.57 -10.42  -8.39  -8.01  -6.61
         -6.36  -5.85  -3.18  -0.34   2.11   2.33   2.81   3.38   4.98   7.23
          7.60   7.75   9.08  10.06  11.75  13.49  14.61  17.26  18.06  20.27
         20.73  21.33  21.83  24.50  26.03  29.25  30.39  30.76  33.82  33.99
         35.11  37.22  37.84  42.91  43.76  46.38  47.94  48.37  49.57  50.40
         53.22  55.39  58.02  65.57  66.92  70.09  70.30  75.99  76.58  78.69
         83.53  86.11 117.70 120.97 148.15
   3  1 -24.94 -23.23 -19.45 -17.44 -14.13 -12.54 -10.40  -8.41  -8.03  -6.64
         -6.32  -5.85  -3.19  -0.39   2.16   2.32   2.71   3.39   4.98   7.30
          7.66   7.77   9.08  10.06  11.74  13.49  14.55  17.37  18.11  20.31
         20.71  21.27  21.89  24.51  25.94  29.26  30.29  30.72  33.75  33.83
         35.17  37.19  38.02  42.88  43.91  46.35  48.20  48.29  49.45  50.41
         53.26  55.37  58.06  65.64  66.69  69.97  70.20  75.88  76.20  78.73
         83.48  86.18 117.55 120.77 148.18
   4  1 -24.96 -23.19 -19.48 -17.50 -14.06 -12.52 -10.37  -8.44  -8.05  -6.67
         -6.28  -5.86  -3.20  -0.45   2.20   2.31   2.61   3.40   4.99   7.36
          7.71   7.80   9.09  10.06  11.74  13.49  14.49  17.48  18.15  20.34
         20.68  21.23  21.96  24.53  25.85  29.27  30.19  30.67  33.50  33.85
         35.24  37.16  38.19  42.85  44.07  46.32  48.20  48.45  49.33  50.42
         53.30  55.36  58.10  65.72  66.45  69.85  70.11  75.77  75.85  78.78
         83.41  86.26 117.34 120.58 148.21
   5  1 -24.97 -23.15 -19.50 -17.57 -13.98 -12.50 -10.35  -8.46  -8.07  -6.69
         -6.23  -5.87  -3.20  -0.50   2.24   2.28   2.51   3.42   4.99   7.42
          7.74   7.85   9.09  10.06  11.73  13.49  14.44  17.60  18.20  20.38
         20.65  21.19  22.03  24.54  25.77  29.28  30.09  30.63  33.26  33.87
         35.31  37.14  38.37  42.82  44.22  46.29  48.11  48.70  49.20  50.43
         53.35  55.36  58.14  65.80  66.22  69.72  70.02  75.53  75.65  78.81
         83.33  86.34 117.09 120.40 148.23
   6  1 -24.99 -23.10 -19.53 -17.63 -13.91 -12.47 -10.33  -8.49  -8.09  -6.72
         -6.19  -5.87  -3.21  -0.56   2.25   2.27   2.41   3.45   4.99   7.47
          7.76   7.91   9.09  10.06  11.73  13.48  14.38  17.71  18.25  20.42
         20.61  21.17  22.10  24.56  25.68  29.29  30.00  30.58  33.02  33.89
         35.39  37.12  38.55  42.78  44.37  46.25  48.02  48.94  49.08  50.44
         53.41  55.36  58.18  65.88  65.99  69.58  69.95  75.23  75.52  78.85
         83.24  86.42 116.81 120.21 148.25
   7  1 -25.01 -23.06 -19.55 -17.70 -13.83 -12.45 -10.30  -8.52  -8.11  -6.74
         -6.15  -5.88  -3.22  -0.61   2.21   2.31   2.33   3.48   5.00   7.52
          7.77   7.98   9.09  10.05  11.73  13.47  14.33  17.84  18.30  20.46
         20.58  21.15  22.17  24.59  25.59  29.30  29.91  30.54  32.78  33.92
         35.47  37.10  38.73  42.75  44.53  46.21  47.92  48.95  49.18  50.46
         53.47  55.36  58.23  65.76  65.96  69.43  69.90  74.95  75.39  78.88
         83.13  86.51 116.50 120.02 148.27
   8  1 -25.02 -23.01 -19.58 -17.76 -13.76 -12.43 -10.28  -8.54  -8.13  -6.77
         -6.10  -5.89  -3.23  -0.67   2.15   2.26   2.35   3.52   5.00   7.58
          7.79   8.05   9.09  10.04  11.73  13.46  14.28  17.96  18.35  20.51
         20.54  21.14  22.24  24.61  25.50  29.31  29.81  30.50  32.54  33.94
         35.55  37.09  38.91  42.71  44.68  46.16  47.83  48.81  49.41  50.47
         53.53  55.37  58.28  65.53  66.03  69.28  69.85  74.70  75.25  78.90
         83.02  86.60 116.16 119.80 148.28
   9  1 -25.04 -22.97 -19.61 -17.81 -13.69 -12.40 -10.25  -8.57  -8.15  -6.79
         -6.06  -5.89  -3.24  -0.72   2.07   2.21   2.39   3.56   5.00   7.62
          7.80   8.12   9.09  10.04  11.73  13.45  14.23  18.08  18.40  20.50
         20.55  21.14  22.32  24.64  25.41  29.32  29.72  30.46  32.30  33.97
         35.63  37.08  39.09  42.67  44.84  46.11  47.74  48.68  49.63  50.48
         53.59  55.39  58.35  65.31  66.10  69.13  69.83  74.46  75.12  78.92
         82.89  86.69 115.81 119.57 148.28
  10  1 -25.06 -22.92 -19.64 -17.87 -13.62 -12.38 -10.23  -8.60  -8.17  -6.82
         -6.02  -5.90  -3.25  -0.77   1.99   2.17   2.42   3.61   5.01   7.67
          7.81   8.18   9.09  10.03  11.74  13.44  14.19  18.20  18.46  20.46
         20.60  21.15  22.40  24.68  25.31  29.32  29.64  30.41  32.07  33.99
         35.72  37.07  39.27  42.62  45.00  46.06  47.65  48.54  49.84  50.49
         53.65  55.41  58.42  65.08  66.17  68.97  69.81  74.25  74.98  78.94
         82.75  86.78 115.44 119.31 148.27
  11  1 -25.07 -22.87 -19.68 -17.92 -13.55 -12.36 -10.21  -8.62  -8.19  -6.84
         -5.97  -5.91  -3.26  -0.82   1.90   2.13   2.45   3.66   5.01   7.72
          7.82   8.25   9.09  10.01  11.74  13.43  14.14  18.30  18.52  20.42
         20.64  21.17  22.49  24.71  25.22  29.33  29.55  30.37  31.83  34.02
         35.80  37.07  39.46  42.58  45.16  45.99  47.56  48.40  50.05  50.51
         53.70  55.44  58.50  64.85  66.22  68.82  69.82  74.06  74.85  78.95
         82.61  86.86 115.07 119.02 148.25
  12  1 -25.09 -22.82 -19.71 -17.98 -13.48 -12.33 -10.18  -8.65  -8.20  -6.87
         -5.93  -5.91  -3.27  -0.88   1.81   2.10   2.49   3.71   5.01   7.75
          7.83   8.31   9.08  10.00  11.75  13.41  14.10  18.40  18.60  20.38
         20.69  21.19  22.57  24.75  25.13  29.34  29.47  30.33  31.60  34.05
         35.89  37.08  39.63  42.53  45.32  45.93  47.47  48.26  50.24  50.52
         53.75  55.47  58.59  64.62  66.28  68.66  69.83  73.89  74.72  78.95
         82.45  86.95 114.68 118.71 148.21
  13  1 -25.10 -22.77 -19.75 -18.02 -13.42 -12.31 -10.16  -8.68  -8.22  -6.89
         -5.92  -5.88  -3.28  -0.93   1.72   2.06   2.52   3.76   5.01   7.78
          7.86   8.37   9.08   9.99  11.76  13.39  14.06  18.47  18.69  20.35
         20.74  21.22  22.66  24.80  25.04  29.35  29.38  30.29  31.38  34.07
         35.98  37.10  39.81  42.48  45.48  45.85  47.38  48.12  50.42  50.53
         53.80  55.51  58.70  64.39  66.33  68.50  69.86  73.74  74.59  78.95
         82.28  87.04 114.30 118.36 148.16
  14  1 -25.11 -22.72 -19.78 -18.07 -13.35 -12.29 -10.14  -8.71  -8.24  -6.91
         -5.93  -5.84  -3.29  -0.97   1.64   2.02   2.55   3.81   5.02   7.80
          7.89   8.43   9.07   9.97  11.76  13.38  14.02  18.53  18.79  20.31
         20.79  21.26  22.75  24.85  24.95  29.30  29.36  30.25  31.15  34.10
         36.06  37.13  39.99  42.42  45.65  45.77  47.30  47.98  50.54  50.59
         53.84  55.56  58.82  64.16  66.38  68.34  69.90  73.60  74.47  78.94
         82.10  87.13 113.91 117.99 148.09
  15  1 -25.13 -22.67 -19.82 -18.12 -13.29 -12.27 -10.12  -8.74  -8.25  -6.93
         -5.93  -5.79  -3.31  -1.02   1.55   1.99   2.58   3.87   5.02   7.82
          7.93   8.48   9.06   9.96  11.77  13.36  13.98  18.58  18.90  20.29
         20.85  21.30  22.85  24.85  24.91  29.22  29.37  30.20  30.93  34.12
         36.14  37.17  40.16  42.37  45.68  45.82  47.23  47.84  50.55  50.75
         53.88  55.61  58.95  63.93  66.44  68.18  69.94  73.49  74.36  78.93
         81.91  87.22 113.52 117.58 148.01
  16  1 -25.14 -22.62 -19.86 -18.16 -13.22 -12.25 -10.09  -8.76  -8.27  -6.95
         -5.94  -5.75  -3.32  -1.07   1.47   1.96   2.61   3.92   5.02   7.83
          7.97   8.54   9.06   9.94  11.79  13.34  13.95  18.63  19.00  20.27
         20.90  21.34  22.94  24.76  24.97  29.15  29.38  30.15  30.72  34.15
         36.21  37.23  40.33  42.31  45.58  45.99  47.16  47.70  50.56  50.89
         53.91  55.67  59.09  63.70  66.50  68.03  69.99  73.40  74.25  78.91
         81.71  87.30 113.13 117.15 147.90
  17  1 -25.15 -22.57 -19.90 -18.20 -13.16 -12.23 -10.07  -8.79  -8.28  -6.97
         -5.94  -5.70  -3.33  -1.11   1.39   1.92   2.63   3.98   5.02   7.83
          8.01   8.58   9.05   9.92  11.80  13.32  13.92  18.67  19.10  20.26
         20.95  21.38  23.04  24.67  25.04  29.07  29.39  30.10  30.53  34.17
         36.26  37.30  40.49  42.25  45.48  46.16  47.08  47.56  50.56  51.02
         53.93  55.73  59.23  63.47  66.57  67.88  70.04  73.33  74.15  78.89
         81.51  87.38 112.73 116.68 147.78
  18  1 -25.16 -22.52 -19.94 -18.24 -13.10 -12.21 -10.05  -8.82  -8.29  -6.99
         -5.95  -5.66  -3.35  -1.16   1.32   1.89   2.66   4.03   5.03   7.84
          8.05   8.63   9.05   9.91  11.81  13.30  13.88  18.70  19.19  20.26
         21.01  21.43  23.14  24.58  25.12  29.00  29.40  30.02  30.36  34.19
         36.31  37.38  40.65  42.19  45.37  46.34  47.01  47.43  50.57  51.14
         53.95  55.79  59.38  63.25  66.66  67.74  70.08  73.27  74.07  78.87
         81.29  87.46 112.34 116.20 147.64
  19  1 -25.18 -22.47 -19.99 -18.27 -13.04 -12.20 -10.03  -8.84  -8.31  -7.01
         -5.95  -5.61  -3.36  -1.20   1.24   1.86   2.68   4.09   5.03   7.84
          8.09   8.67   9.04   9.89  11.83  13.28  13.85  18.74  19.27  20.27
         21.06  21.48  23.24  24.49  25.21  28.94  29.40  29.90  30.23  34.21
         36.36  37.48  40.80  42.12  45.26  46.52  46.93  47.31  50.58  51.24
         53.97  55.86  59.54  63.02  66.76  67.60  70.12  73.24  73.99  78.83
         81.06  87.54 111.95 115.69 147.48
  20  1 -25.19 -22.42 -20.03 -18.31 -12.99 -12.18 -10.01  -8.87  -8.32  -7.03
         -5.96  -5.57  -3.38  -1.24   1.17   1.83   2.71   4.14   5.03   7.84
          8.13   8.70   9.04   9.87  11.84  13.26  13.83  18.77  19.33  20.29
         21.12  21.53  23.35  24.40  25.30  28.87  29.41  29.73  30.16  34.23
         36.39  37.58  40.95  42.06  45.15  46.70  46.83  47.20  50.59  51.32
         53.97  55.93  59.69  62.80  66.88  67.47  70.15  73.23  73.94  78.80
         80.83  87.62 111.56 115.17 147.30
  21  1 -25.20 -22.37 -20.08 -18.34 -12.93 -12.17  -9.99  -8.90  -8.33  -7.04
         -5.96  -5.53  -3.39  -1.28   1.11   1.80   2.73   4.20   5.04   7.84
          8.17   8.73   9.05   9.85  11.86  13.25  13.80  18.80  19.38  20.32
         21.18  21.57  23.46  24.32  25.40  28.81  29.40  29.57  30.11  34.24
         36.41  37.70  41.10  42.00  45.03  46.71  46.89  47.12  50.59  51.40
         53.98  56.00  59.84  62.57  67.02  67.35  70.18  73.23  73.89  78.76
         80.59  87.69 111.17 114.63 147.10
  22  1 -25.21 -22.31 -20.12 -18.37 -12.88 -12.15  -9.97  -8.92  -8.34  -7.06
         -5.97  -5.49  -3.41  -1.31   1.04   1.77   2.75   4.25   5.04   7.84
          8.21   8.75   9.05   9.82  11.87  13.23  13.78  18.83  19.41  20.37
         21.24  21.62  23.57  24.23  25.50  28.75  29.30  29.47  30.07  34.26
         36.43  37.81  41.23  41.93  44.92  46.58  47.06  47.08  50.60  51.46
         53.98  56.07  59.99  62.36  67.18  67.23  70.20  73.25  73.86  78.71
         80.34  87.76 110.77 114.09 146.89
  23  1 -25.22 -22.26 -20.17 -18.39 -12.83 -12.14  -9.95  -8.94  -8.35  -7.07
         -5.97  -5.45  -3.42  -1.35   0.98   1.74   2.77   4.30   5.04   7.84
          8.24   8.77   9.06   9.80  11.89  13.21  13.75  18.86  19.43  20.43
         21.30  21.67  23.67  24.15  25.61  28.69  29.13  29.46  30.04  34.27
         36.45  37.93  41.36  41.87  44.80  46.43  47.01  47.27  50.60  51.50
         53.98  56.14  60.12  62.14  67.12  67.36  70.20  73.29  73.85  78.67
         80.09  87.82 110.37 113.56 146.67
  24  1 -25.23 -22.21 -20.22 -18.42 -12.78 -12.13  -9.93  -8.97  -8.36  -7.09
         -5.98  -5.41  -3.44  -1.38   0.93   1.72   2.79   4.35   5.05   7.84
          8.28   8.78   9.08   9.78  11.91  13.19  13.73  18.88  19.44  20.49
         21.36  21.72  23.77  24.08  25.73  28.64  28.94  29.46  30.01  34.28
         36.46  38.03  41.48  41.82  44.69  46.28  46.98  47.47  50.60  51.53
         53.98  56.21  60.25  61.94  67.02  67.56  70.20  73.34  73.85  78.62
         79.83  87.88 109.96 113.03 146.44
  25  1 -25.23 -22.16 -20.27 -18.44 -12.73 -12.12  -9.91  -8.99  -8.37  -7.10
         -5.98  -5.37  -3.46  -1.41   0.87   1.70   2.81   4.39   5.05   7.83
          8.31   8.78   9.09   9.76  11.92  13.18  13.71  18.90  19.45  20.55
         21.42  21.76  23.84  24.04  25.86  28.59  28.75  29.47  29.98  34.29
         36.48  38.13  41.60  41.78  44.58  46.11  46.95  47.67  50.61  51.55
         53.97  56.27  60.36  61.74  66.92  67.79  70.20  73.40  73.87  78.56
         79.56  87.94 109.53 112.53 146.20
  26  1 -25.24 -22.11 -20.32 -18.46 -12.68 -12.12  -9.90  -9.01  -8.38  -7.11
         -5.98  -5.33  -3.47  -1.44   0.82   1.67   2.82   4.44   5.06   7.83
          8.35   8.79   9.11   9.73  11.94  13.16  13.69  18.93  19.45  20.62
         21.48  21.81  23.83  24.09  25.99  28.54  28.56  29.47  29.96  34.30
         36.48  38.22  41.71  41.75  44.48  45.95  46.92  47.87  50.61  51.56
         53.96  56.32  60.46  61.54  66.84  68.03  70.18  73.47  73.91  78.51
         79.29  88.00 109.09 112.07 145.96
  27  1 -25.25 -22.06 -20.36 -18.48 -12.64 -12.11  -9.88  -9.03  -8.39  -7.12
         -5.99  -5.30  -3.49  -1.47   0.77   1.65   2.84   4.48   5.06   7.82
          8.38   8.78   9.13   9.71  11.95  13.15  13.68  18.95  19.44  20.69
         21.53  21.85  23.77  24.19  26.12  28.38  28.50  29.48  29.94  34.30
         36.49  38.28  41.73  41.80  44.38  45.78  46.90  48.07  50.61  51.55
         53.96  56.37  60.55  61.36  66.76  68.28  70.16  73.54  73.97  78.46
         79.02  88.05 108.64 111.64 145.72
  28  1 -25.26 -22.01 -20.41 -18.50 -12.60 -12.11  -9.86  -9.05  -8.40  -7.14
         -5.99  -5.26  -3.51  -1.49   0.73   1.63   2.85   4.51   5.07   7.82
          8.41   8.78   9.15   9.69  11.97  13.14  13.66  18.97  19.43  20.75
         21.59  21.88  23.70  24.30  26.25  28.19  28.46  29.49  29.92  34.31
         36.50  38.33  41.73  41.90  44.29  45.61  46.89  48.27  50.61  51.53
         53.95  56.41  60.63  61.20  66.68  68.54  70.14  73.62  74.04  78.40
         78.74  88.10 108.17 111.25 145.48
  29  1 -25.26 -21.96 -20.46 -18.51 -12.56 -12.11  -9.85  -9.07  -8.40  -7.15
         -5.99  -5.23  -3.52  -1.52   0.69   1.62   2.86   4.55   5.08   7.81
          8.44   8.78   9.18   9.66  11.98  13.12  13.65  18.99  19.42  20.81
         21.65  21.92  23.63  24.42  26.39  28.02  28.43  29.49  29.90  34.31
         36.50  38.36  41.76  41.98  44.20  45.44  46.87  48.47  50.61  51.50
         53.95  56.45  60.69  61.04  66.62  68.80  70.12  73.69  74.14  78.35
         78.46  88.14 107.71 110.91 145.25
  30  1 -25.27 -21.92 -20.50 -18.53 -12.52 -12.11  -9.84  -9.09  -8.41  -7.15
         -6.00  -5.20  -3.54  -1.54   0.66   1.60   2.87   4.58   5.08   7.81
          8.46   8.78   9.20   9.64  12.00  13.11  13.63  19.00  19.41  20.87
         21.71  21.95  23.56  24.53  26.52  27.85  28.40  29.50  29.88  34.31
         36.51  38.36  41.81  42.05  44.12  45.27  46.86  48.67  50.61  51.46
         53.94  56.48  60.75  60.90  66.56  69.07  70.10  73.77  74.25  78.18
         78.29  88.18 107.25 110.61 145.03
  31  1 -25.27 -21.87 -20.55 -18.54 -12.48 -12.11  -9.82  -9.10  -8.41  -7.16
         -6.00  -5.17  -3.55  -1.56   0.62   1.59   2.88   4.61   5.09   7.80
          8.49   8.77   9.22   9.62  12.01  13.10  13.62  19.02  19.40  20.92
         21.76  21.98  23.49  24.65  26.64  27.68  28.38  29.50  29.87  34.31
         36.51  38.35  41.88  42.12  44.04  45.11  46.85  48.86  50.61  51.41
         53.93  56.50  60.77  60.79  66.51  69.32  70.07  73.84  74.38  77.90
         78.24  88.21 106.81 110.35 144.82
  32  1 -25.28 -21.83 -20.59 -18.55 -12.45 -12.11  -9.81  -9.12  -8.42  -7.17
         -6.00  -5.15  -3.56  -1.57   0.59   1.58   2.89   4.63   5.10   7.79
          8.51   8.77   9.24   9.59  12.02  13.09  13.61  19.03  19.39  20.97
         21.81  22.00  23.42  24.76  26.76  27.53  28.36  29.50  29.86  34.31
         36.52  38.32  41.96  42.18  43.96  44.96  46.84  49.05  50.61  51.35
         53.93  56.51  60.66  60.83  66.47  69.55  70.05  73.91  74.52  77.62
         78.20  88.24 106.39 110.13 144.63
  33  1 -25.28 -21.79 -20.62 -18.56 -12.42 -12.11  -9.80  -9.13  -8.42  -7.18
         -6.00  -5.13  -3.57  -1.59   0.57   1.56   2.90   4.65   5.10   7.79
          8.53   8.77   9.26   9.57  12.03  13.08  13.60  19.05  19.38  21.01
         21.86  22.02  23.37  24.88  26.87  27.38  28.34  29.51  29.85  34.31
         36.52  38.28  42.07  42.23  43.88  44.82  46.84  49.23  50.61  51.28
         53.92  56.52  60.56  60.86  66.43  69.77  70.03  73.97  74.68  77.35
         78.15  88.27 106.01 109.95 144.46
  34  1 -25.28 -21.76 -20.66 -18.56 -12.39 -12.12  -9.79  -9.14  -8.43  -7.18
         -6.00  -5.11  -3.58  -1.60   0.55   1.56   2.91   4.66   5.11   7.78
          8.54   8.76   9.28   9.55  12.04  13.08  13.60  19.06  19.37  21.04
         21.91  22.04  23.31  24.98  26.96  27.25  28.33  29.51  29.84  34.30
         36.53  38.24  42.18  42.27  43.81  44.69  46.83  49.40  50.61  51.20
         53.92  56.53  60.48  60.88  66.40  69.93  70.04  74.03  74.86  77.08
         78.12  88.29 105.68 109.80 144.32
  35  1 -25.28 -21.73 -20.69 -18.57 -12.37 -12.12  -9.79  -9.15  -8.43  -7.18
         -6.00  -5.10  -3.59  -1.61   0.53   1.55   2.91   4.68   5.12   7.78
          8.56   8.76   9.29   9.53  12.04  13.07  13.59  19.07  19.36  21.07
         21.94  22.06  23.27  25.07  27.03  27.14  28.33  29.51  29.83  34.30
         36.53  38.20  42.29  42.31  43.73  44.58  46.83  49.56  50.61  51.12
         53.92  56.53  60.41  60.90  66.38  69.97  70.15  74.07  75.04  76.81
         78.08  88.31 105.41 109.68 144.20
  36  1 -25.29 -21.71 -20.71 -18.57 -12.35 -12.13  -9.78  -9.16  -8.43  -7.19
         -6.01  -5.08  -3.60  -1.61   0.52   1.54   2.92   4.69   5.12   7.77
          8.57   8.76   9.31   9.52  12.05  13.07  13.59  19.08  19.36  21.09
         21.97  22.07  23.23  25.15  27.04  27.09  28.32  29.52  29.83  34.30
         36.53  38.16  42.33  42.40  43.65  44.50  46.82  49.69  50.61  51.05
         53.91  56.53  60.37  60.91  66.36  69.97  70.26  74.10  75.24  76.56
         78.06  88.32 105.20 109.59 144.10
  37  1 -25.29 -21.69 -20.72 -18.58 -12.34 -12.13  -9.78  -9.16  -8.43  -7.19
         -6.01  -5.08  -3.60  -1.62   0.51   1.54   2.92   4.69   5.12   7.77
          8.57   8.76   9.32   9.50  12.05  13.07  13.58  19.08  19.35  21.10
         21.99  22.07  23.21  25.20  26.98  27.13  28.32  29.52  29.82  34.30
         36.53  38.14  42.35  42.48  43.59  44.45  46.82  49.79  50.61  50.99
         53.91  56.53  60.33  60.92  66.34  69.96  70.35  74.13  75.43  76.33
         78.04  88.33 105.05 109.53 144.04
  38  1 -25.29 -21.68 -20.73 -18.58 -12.33 -12.14  -9.78  -9.16  -8.43  -7.19
         -6.01  -5.07  -3.60  -1.62   0.51   1.54   2.92   4.70   5.12   7.77
          8.58   8.76   9.33   9.50  12.05  13.06  13.58  19.08  19.35  21.11
         22.00  22.08  23.20  25.23  26.94  27.15  28.32  29.52  29.82  34.29
         36.53  38.12  42.36  42.54  43.55  44.42  46.82  49.85  50.61  50.95
         53.91  56.53  60.32  60.92  66.34  69.96  70.39  74.14  75.59  76.15
         78.04  88.34 104.98 109.51 144.01
  39  1 -25.29 -21.68 -20.73 -18.58 -12.33 -12.14  -9.78  -9.16  -8.43  -7.19
         -6.01  -5.07  -3.61  -1.62   0.51   1.54   2.92   4.70   5.12   7.77
          8.58   8.76   9.33   9.50  12.05  13.06  13.58  19.08  19.35  21.11
         22.01  22.08  23.20  25.23  26.94  27.15  28.32  29.52  29.82  34.29
         36.53  38.12  42.36  42.54  43.55  44.42  46.82  49.85  50.61  50.95
         53.91  56.53  60.32  60.92  66.34  69.96  70.39  74.14  75.60  76.14
         78.03  88.34 104.97 109.50 144.01
  40  1 -25.29 -21.69 -20.73 -18.58 -12.34 -12.13  -9.78  -9.16  -8.43  -7.19
         -6.01  -5.08  -3.60  -1.62   0.51   1.54   2.92   4.69   5.12   7.77
          8.57   8.76   9.32   9.50  12.05  13.06  13.58  19.08  19.35  21.10
         22.00  22.07  23.21  25.21  26.97  27.14  28.32  29.52  29.82  34.30
         36.53  38.14  42.35  42.49  43.58  44.44  46.82  49.80  50.61  50.98
         53.91  56.53  60.33  60.92  66.34  69.96  70.35  74.13  75.45  76.31
         78.04  88.33 105.04 109.53 144.04
  41  1 -25.29 -21.71 -20.71 -18.57 -12.35 -12.13  -9.78  -9.16  -8.43  -7.19
         -6.01  -5.08  -3.60  -1.61   0.52   1.54   2.92   4.69   5.12   7.77
          8.57   8.76   9.31   9.51  12.05  13.07  13.59  19.08  19.36  21.09
         21.97  22.07  23.23  25.15  27.04  27.10  28.32  29.52  29.83  34.30
         36.53  38.16  42.33  42.41  43.65  44.50  46.82  49.70  50.61  51.04
         53.91  56.53  60.36  60.91  66.36  69.97  70.27  74.11  75.25  76.54
         78.06  88.32 105.18 109.59 144.10
  42  1 -25.29 -21.73 -20.69 -18.57 -12.37 -12.12  -9.79  -9.15  -8.43  -7.18
         -6.00  -5.10  -3.59  -1.61   0.53   1.55   2.91   4.68   5.12   7.78
          8.56   8.76   9.30   9.53  12.04  13.07  13.59  19.07  19.36  21.07
         21.95  22.06  23.27  25.08  27.04  27.13  28.33  29.51  29.83  34.30
         36.53  38.20  42.30  42.31  43.72  44.58  46.83  49.57  50.61  51.12
         53.92  56.53  60.41  60.90  66.37  69.97  70.16  74.07  75.06  76.79
         78.08  88.31 105.39 109.67 144.19
  43  1 -25.28 -21.76 -20.66 -18.56 -12.39 -12.12  -9.79  -9.14  -8.43  -7.18
         -6.00  -5.11  -3.58  -1.60   0.55   1.55   2.91   4.67   5.11   7.78
          8.55   8.76   9.28   9.55  12.04  13.08  13.59  19.06  19.37  21.04
         21.91  22.04  23.31  24.99  26.96  27.24  28.33  29.51  29.84  34.30
         36.53  38.24  42.19  42.27  43.80  44.68  46.83  49.41  50.61  51.20
         53.92  56.53  60.47  60.88  66.40  69.94  70.04  74.03  74.87  77.06
         78.11  88.29 105.66 109.79 144.31
  44  1 -25.28 -21.79 -20.63 -18.56 -12.42 -12.11  -9.80  -9.13  -8.42  -7.18
         -6.00  -5.13  -3.57  -1.59   0.57   1.56   2.90   4.65   5.10   7.79
          8.53   8.77   9.26   9.57  12.03  13.08  13.60  19.05  19.38  21.01
         21.87  22.02  23.36  24.88  26.87  27.37  28.34  29.51  29.85  34.31
         36.52  38.28  42.07  42.23  43.88  44.81  46.84  49.24  50.61  51.27
         53.92  56.52  60.55  60.86  66.43  69.78  70.03  73.98  74.69  77.33
         78.15  88.27 105.99 109.94 144.45
  45  1 -25.28 -21.83 -20.59 -18.55 -12.45 -12.11  -9.81  -9.12  -8.42  -7.17
         -6.00  -5.15  -3.56  -1.57   0.59   1.57   2.89   4.63   5.10   7.79
          8.51   8.77   9.24   9.59  12.02  13.09  13.61  19.04  19.39  20.97
         21.82  22.00  23.42  24.77  26.77  27.52  28.36  29.50  29.86  34.31
         36.52  38.32  41.97  42.18  43.95  44.95  46.84  49.06  50.61  51.34
         53.93  56.51  60.65  60.83  66.47  69.57  70.05  73.92  74.53  77.60
         78.19  88.25 106.36 110.12 144.62
  46  1 -25.27 -21.87 -20.55 -18.54 -12.48 -12.11  -9.82  -9.11  -8.42  -7.16
         -6.00  -5.17  -3.55  -1.56   0.62   1.59   2.88   4.61   5.09   7.80
          8.49   8.77   9.22   9.61  12.01  13.10  13.62  19.02  19.40  20.92
         21.77  21.98  23.48  24.66  26.65  27.67  28.38  29.50  29.87  34.31
         36.52  38.35  41.88  42.13  44.03  45.10  46.85  48.87  50.61  51.41
         53.93  56.50  60.76  60.80  66.51  69.34  70.07  73.85  74.39  77.88
         78.24  88.21 106.77 110.34 144.81
  47  1 -25.27 -21.91 -20.51 -18.53 -12.52 -12.11  -9.83  -9.09  -8.41  -7.15
         -6.00  -5.20  -3.54  -1.54   0.65   1.60   2.87   4.58   5.08   7.80
          8.47   8.78   9.20   9.64  12.00  13.11  13.63  19.01  19.41  20.87
         21.71  21.95  23.55  24.54  26.53  27.84  28.40  29.50  29.88  34.31
         36.51  38.36  41.81  42.06  44.11  45.26  46.86  48.68  50.61  51.46
         53.94  56.48  60.75  60.89  66.56  69.08  70.09  73.78  74.26  78.16
         78.29  88.18 107.22 110.59 145.01
  48  1 -25.26 -21.96 -20.46 -18.51 -12.55 -12.11  -9.85  -9.07  -8.40  -7.15
         -5.99  -5.23  -3.52  -1.52   0.69   1.62   2.86   4.55   5.08   7.81
          8.44   8.78   9.18   9.66  11.98  13.12  13.64  18.99  19.42  20.82
         21.66  21.92  23.62  24.42  26.40  28.01  28.43  29.49  29.90  34.31
         36.51  38.36  41.76  41.99  44.19  45.43  46.87  48.48  50.61  51.50
         53.94  56.45  60.70  61.03  66.62  68.82  70.12  73.70  74.14  78.34
         78.44  88.14 107.67 110.89 145.23
  49  1 -25.26 -22.01 -20.41 -18.50 -12.59 -12.11  -9.86  -9.05  -8.40  -7.14
         -5.99  -5.26  -3.51  -1.50   0.73   1.63   2.85   4.52   5.07   7.82
          8.41   8.78   9.16   9.68  11.97  13.13  13.66  18.97  19.43  20.76
         21.60  21.89  23.69  24.31  26.26  28.18  28.46  29.49  29.92  34.31
         36.50  38.33  41.74  41.90  44.28  45.60  46.89  48.28  50.61  51.53
         53.95  56.42  60.63  61.18  66.68  68.56  70.14  73.62  74.05  78.40
         78.72  88.10 108.14 111.22 145.46
  50  1 -25.25 -22.06 -20.37 -18.48 -12.64 -12.11  -9.88  -9.03  -8.39  -7.13
         -5.99  -5.29  -3.49  -1.47   0.77   1.65   2.84   4.48   5.06   7.82
          8.38   8.78   9.13   9.71  11.95  13.15  13.67  18.95  19.44  20.69
         21.54  21.85  23.77  24.19  26.13  28.36  28.50  29.48  29.93  34.31
         36.49  38.29  41.73  41.81  44.37  45.77  46.90  48.08  50.61  51.55
         53.96  56.38  60.56  61.35  66.75  68.30  70.16  73.54  73.97  78.45
         79.00  88.05 108.60 111.61 145.70
  51  1 -25.24 -22.10 -20.32 -18.46 -12.68 -12.12  -9.89  -9.01  -8.38  -7.11
         -5.98  -5.33  -3.47  -1.44   0.82   1.67   2.82   4.44   5.06   7.83
          8.35   8.79   9.11   9.73  11.94  13.16  13.69  18.93  19.45  20.63
         21.48  21.81  23.83  24.09  26.00  28.54  28.55  29.47  29.96  34.30
         36.48  38.22  41.71  41.74  44.47  45.94  46.92  47.88  50.61  51.56
         53.96  56.33  60.47  61.53  66.83  68.05  70.18  73.47  73.91  78.51
         79.27  88.00 109.06 112.03 145.94
  52  1 -25.23 -22.16 -20.27 -18.44 -12.73 -12.12  -9.91  -8.99  -8.37  -7.10
         -5.98  -5.37  -3.46  -1.41   0.87   1.69   2.81   4.40   5.05   7.83
          8.32   8.78   9.09   9.75  11.92  13.18  13.71  18.91  19.45  20.56
         21.42  21.77  23.85  24.04  25.87  28.59  28.74  29.47  29.98  34.29
         36.48  38.14  41.61  41.77  44.57  46.10  46.95  47.68  50.61  51.55
         53.97  56.27  60.37  61.72  66.92  67.80  70.19  73.40  73.87  78.56
         79.54  87.95 109.50 112.50 146.18
  53  1 -25.23 -22.21 -20.22 -18.42 -12.77 -12.13  -9.93  -8.97  -8.36  -7.09
         -5.98  -5.40  -3.44  -1.38   0.92   1.72   2.79   4.35   5.05   7.84
          8.28   8.78   9.08   9.78  11.91  13.19  13.73  18.88  19.45  20.49
         21.36  21.72  23.78  24.07  25.74  28.63  28.93  29.46  30.00  34.28
         36.46  38.04  41.49  41.82  44.68  46.27  46.97  47.48  50.60  51.53
         53.98  56.21  60.26  61.92  67.01  67.58  70.20  73.34  73.85  78.61
         79.81  87.89 109.92 113.00 146.42
  54  1 -25.22 -22.26 -20.18 -18.39 -12.82 -12.14  -9.95  -8.95  -8.35  -7.07
         -5.97  -5.44  -3.43  -1.35   0.98   1.74   2.77   4.30   5.04   7.84
          8.25   8.77   9.06   9.80  11.89  13.21  13.75  18.86  19.43  20.43
         21.30  21.68  23.68  24.14  25.62  28.69  29.12  29.46  30.03  34.27
         36.45  37.93  41.37  41.87  44.79  46.42  47.01  47.29  50.60  51.50
         53.98  56.15  60.13  62.13  67.11  67.38  70.20  73.29  73.85  78.66
         80.07  87.83 110.34 113.52 146.65
  55  1 -25.21 -22.31 -20.13 -18.37 -12.88 -12.15  -9.97  -8.92  -8.34  -7.06
         -5.97  -5.48  -3.41  -1.32   1.04   1.77   2.75   4.25   5.04   7.84
          8.21   8.75   9.05   9.82  11.87  13.23  13.77  18.83  19.41  20.37
         21.24  21.63  23.57  24.22  25.51  28.74  29.29  29.47  30.07  34.26
         36.44  37.82  41.24  41.93  44.91  46.57  47.06  47.09  50.60  51.46
         53.98  56.08  60.00  62.34  67.19  67.22  70.20  73.25  73.86  78.71
         80.32  87.76 110.74 114.05 146.88
  56  1 -25.20 -22.36 -20.08 -18.34 -12.93 -12.17  -9.99  -8.90  -8.33  -7.04
         -5.96  -5.53  -3.39  -1.28   1.10   1.80   2.73   4.20   5.04   7.84
          8.17   8.73   9.05   9.84  11.86  13.24  13.80  18.80  19.38  20.33
         21.18  21.58  23.47  24.31  25.40  28.80  29.39  29.56  30.10  34.25
         36.42  37.71  41.11  41.99  45.02  46.71  46.90  47.12  50.59  51.40
         53.98  56.01  59.85  62.56  67.03  67.34  70.18  73.23  73.89  78.76
         80.57  87.69 111.14 114.59 147.09
  57  1 -25.19 -22.41 -20.04 -18.31 -12.98 -12.18 -10.01  -8.87  -8.32  -7.03
         -5.96  -5.57  -3.38  -1.24   1.17   1.83   2.71   4.15   5.03   7.84
          8.13   8.70   9.04   9.87  11.84  13.26  13.82  18.77  19.33  20.29
         21.13  21.53  23.36  24.40  25.30  28.87  29.41  29.72  30.15  34.23
         36.39  37.59  40.96  42.06  45.14  46.72  46.82  47.20  50.59  51.33
         53.97  55.94  59.70  62.78  66.89  67.46  70.16  73.23  73.93  78.80
         80.81  87.62 111.53 115.13 147.28
  58  1 -25.18 -22.46 -19.99 -18.28 -13.04 -12.20 -10.03  -8.85  -8.31  -7.01
         -5.95  -5.61  -3.36  -1.20   1.24   1.86   2.68   4.09   5.03   7.84
          8.09   8.67   9.04   9.89  11.83  13.28  13.85  18.74  19.27  20.27
         21.07  21.48  23.25  24.49  25.21  28.93  29.40  29.88  30.23  34.21
         36.36  37.49  40.82  42.12  45.25  46.53  46.92  47.30  50.58  51.24
         53.97  55.87  59.55  63.00  66.77  67.59  70.12  73.24  73.99  78.83
         81.05  87.55 111.92 115.65 147.46
  59  1 -25.17 -22.52 -19.95 -18.24 -13.10 -12.21 -10.05  -8.82  -8.29  -6.99
         -5.95  -5.65  -3.35  -1.16   1.31   1.89   2.66   4.04   5.03   7.84
          8.05   8.63   9.05   9.90  11.81  13.30  13.88  18.71  19.20  20.26
         21.01  21.43  23.15  24.57  25.13  29.00  29.40  30.01  30.35  34.19
         36.32  37.39  40.66  42.18  45.36  46.35  47.00  47.42  50.57  51.14
         53.95  55.80  59.39  63.23  66.66  67.73  70.08  73.27  74.06  78.86
         81.27  87.47 112.32 116.16 147.63
  60  1 -25.15 -22.57 -19.90 -18.20 -13.16 -12.23 -10.07  -8.79  -8.28  -6.97
         -5.94  -5.70  -3.33  -1.12   1.39   1.92   2.63   3.98   5.02   7.83
          8.01   8.59   9.05   9.92  11.80  13.32  13.91  18.67  19.11  20.26
         20.96  21.38  23.05  24.67  25.05  29.07  29.39  30.09  30.51  34.17
         36.27  37.30  40.50  42.25  45.47  46.18  47.08  47.55  50.57  51.03
         53.94  55.73  59.24  63.46  66.58  67.87  70.04  73.32  74.15  78.89
         81.49  87.39 112.71 116.65 147.77
  61  1 -25.14 -22.62 -19.86 -18.16 -13.22 -12.25 -10.09  -8.76  -8.27  -6.95
         -5.94  -5.74  -3.32  -1.07   1.47   1.95   2.61   3.93   5.02   7.83
          7.97   8.54   9.06   9.94  11.79  13.34  13.95  18.63  19.01  20.27
         20.90  21.34  22.95  24.76  24.98  29.14  29.38  30.15  30.71  34.15
         36.21  37.23  40.34  42.31  45.58  46.00  47.15  47.69  50.56  50.90
         53.91  55.67  59.10  63.69  66.51  68.02  69.99  73.39  74.24  78.91
         81.70  87.31 113.10 117.11 147.89
  62  1 -25.13 -22.67 -19.82 -18.12 -13.28 -12.27 -10.11  -8.74  -8.25  -6.93
         -5.93  -5.79  -3.31  -1.02   1.55   1.99   2.58   3.87   5.02   7.82
          7.93   8.49   9.06   9.96  11.78  13.36  13.98  18.59  18.91  20.29
         20.85  21.30  22.85  24.85  24.92  29.22  29.37  30.20  30.92  34.12
         36.14  37.18  40.17  42.36  45.67  45.83  47.22  47.83  50.55  50.76
         53.88  55.61  58.96  63.92  66.44  68.17  69.95  73.48  74.35  78.93
         81.90  87.22 113.49 117.55 148.00
  63  1 -25.11 -22.72 -19.78 -18.08 -13.35 -12.29 -10.14  -8.71  -8.24  -6.91
         -5.93  -5.83  -3.29  -0.98   1.63   2.02   2.55   3.82   5.02   7.81
          7.89   8.43   9.07   9.97  11.77  13.37  14.02  18.54  18.80  20.31
         20.80  21.26  22.76  24.86  24.94  29.30  29.36  30.24  31.14  34.10
         36.07  37.13  40.00  42.42  45.66  45.76  47.30  47.97  50.54  50.60
         53.85  55.56  58.83  64.14  66.39  68.33  69.90  73.59  74.46  78.94
         82.09  87.14 113.88 117.96 148.09
  64  1 -25.10 -22.77 -19.75 -18.03 -13.41 -12.31 -10.16  -8.68  -8.22  -6.89
         -5.92  -5.88  -3.28  -0.93   1.71   2.06   2.52   3.76   5.01   7.79
          7.86   8.38   9.08   9.99  11.76  13.39  14.06  18.48  18.70  20.34
         20.75  21.23  22.67  24.81  25.03  29.35  29.38  30.28  31.36  34.07
         35.98  37.10  39.82  42.47  45.49  45.84  47.38  48.11  50.43  50.53
         53.81  55.52  58.71  64.37  66.33  68.49  69.86  73.73  74.58  78.95
         82.27  87.05 114.27 118.33 148.16
  65  1 -25.09 -22.82 -19.71 -17.98 -13.48 -12.33 -10.18  -8.65  -8.20  -6.87
         -5.92  -5.91  -3.27  -0.88   1.80   2.09   2.49   3.71   5.01   7.76
          7.84   8.32   9.08  10.00  11.75  13.41  14.10  18.40  18.61  20.38
         20.70  21.20  22.58  24.76  25.12  29.34  29.46  30.33  31.59  34.05
         35.90  37.08  39.65  42.52  45.33  45.92  47.46  48.26  50.25  50.52
         53.76  55.48  58.60  64.60  66.28  68.65  69.83  73.88  74.71  78.95
         82.44  86.96 114.66 118.68 148.21
  66  1 -25.07 -22.87 -19.68 -17.93 -13.55 -12.36 -10.21  -8.63  -8.19  -6.84
         -5.97  -5.91  -3.26  -0.83   1.89   2.13   2.46   3.66   5.01   7.72
          7.82   8.25   9.09  10.01  11.74  13.42  14.14  18.31  18.53  20.42
         20.65  21.17  22.49  24.72  25.22  29.33  29.54  30.37  31.82  34.02
         35.81  37.07  39.47  42.57  45.17  45.99  47.55  48.40  50.06  50.51
         53.71  55.44  58.50  64.83  66.23  68.80  69.82  74.05  74.84  78.95
         82.60  86.87 115.04 119.00 148.24
  67  1 -25.06 -22.91 -19.65 -17.87 -13.62 -12.38 -10.23  -8.60  -8.17  -6.82
         -6.01  -5.90  -3.25  -0.78   1.98   2.17   2.42   3.61   5.01   7.67
          7.81   8.19   9.09  10.03  11.74  13.44  14.18  18.20  18.46  20.46
         20.60  21.16  22.41  24.68  25.31  29.32  29.63  30.41  32.05  33.99
         35.72  37.07  39.29  42.62  45.01  46.05  47.64  48.53  49.86  50.49
         53.65  55.41  58.42  65.06  66.17  68.96  69.81  74.24  74.97  78.94
         82.74  86.78 115.42 119.29 148.27
  68  1 -25.04 -22.96 -19.61 -17.82 -13.69 -12.40 -10.25  -8.57  -8.15  -6.80
         -6.06  -5.89  -3.24  -0.72   2.07   2.21   2.39   3.57   5.00   7.63
          7.80   8.12   9.09  10.03  11.73  13.45  14.23  18.09  18.41  20.50
         20.55  21.14  22.33  24.64  25.40  29.32  29.72  30.45  32.28  33.97
         35.64  37.08  39.11  42.66  44.85  46.11  47.73  48.67  49.65  50.48
         53.59  55.39  58.35  65.29  66.11  69.12  69.82  74.45  75.11  78.92
         82.88  86.69 115.78 119.55 148.28
  69  1 -25.02 -23.01 -19.58 -17.76 -13.76 -12.42 -10.28  -8.54  -8.13  -6.77
         -6.10  -5.89  -3.23  -0.67   2.15   2.25   2.35   3.53   5.00   7.58
          7.79   8.05   9.09  10.04  11.73  13.46  14.28  17.97  18.35  20.51
         20.54  21.14  22.25  24.61  25.49  29.31  29.81  30.49  32.52  33.94
         35.55  37.08  38.92  42.70  44.69  46.16  47.82  48.80  49.42  50.47
         53.53  55.38  58.29  65.52  66.04  69.27  69.85  74.68  75.24  78.90
         83.01  86.60 116.14 119.79 148.28
  70  1 -25.01 -23.05 -19.56 -17.70 -13.83 -12.45 -10.30  -8.52  -8.11  -6.75
         -6.15  -5.88  -3.22  -0.62   2.21   2.32   2.32   3.49   5.00   7.53
          7.78   7.98   9.09  10.05  11.73  13.47  14.33  17.84  18.30  20.47
         20.58  21.15  22.17  24.59  25.58  29.30  29.90  30.54  32.76  33.92
         35.47  37.10  38.74  42.74  44.54  46.20  47.92  48.94  49.19  50.46
         53.47  55.36  58.23  65.75  65.97  69.42  69.89  74.93  75.38  78.88
         83.12  86.52 116.47 120.00 148.27
  71  1 -24.99 -23.10 -19.53 -17.64 -13.90 -12.47 -10.32  -8.49  -8.09  -6.72
         -6.19  -5.88  -3.21  -0.56   2.25   2.28   2.41   3.45   4.99   7.48
          7.76   7.92   9.09  10.06  11.73  13.48  14.38  17.72  18.25  20.42
         20.61  21.17  22.10  24.56  25.67  29.29  29.99  30.58  33.00  33.89
         35.39  37.12  38.56  42.78  44.38  46.24  48.01  48.96  49.07  50.44
         53.41  55.36  58.19  65.89  65.98  69.57  69.95  75.21  75.51  78.85
         83.23  86.43 116.79 120.20 148.25
  72  1 -24.98 -23.14 -19.50 -17.57 -13.98 -12.50 -10.35  -8.47  -8.08  -6.69
         -6.23  -5.87  -3.20  -0.51   2.24   2.28   2.50   3.43   4.99   7.42
          7.75   7.85   9.09  10.06  11.73  13.49  14.43  17.60  18.21  20.38
         20.65  21.19  22.03  24.54  25.76  29.28  30.09  30.63  33.24  33.87
         35.32  37.14  38.38  42.82  44.23  46.28  48.10  48.72  49.20  50.43
         53.36  55.36  58.15  65.81  66.21  69.71  70.02  75.51  75.64  78.82
         83.32  86.35 117.07 120.39 148.23
  73  1 -24.96 -23.19 -19.48 -17.51 -14.05 -12.52 -10.37  -8.44  -8.06  -6.67
         -6.27  -5.86  -3.20  -0.45   2.20   2.30   2.60   3.40   4.99   7.36
          7.72   7.80   9.09  10.06  11.74  13.49  14.49  17.49  18.16  20.35
         20.68  21.23  21.96  24.53  25.85  29.27  30.18  30.67  33.48  33.85
         35.25  37.16  38.20  42.85  44.08  46.32  48.19  48.47  49.32  50.42
         53.31  55.36  58.11  65.73  66.44  69.84  70.10  75.76  75.83  78.78
         83.40  86.27 117.33 120.57 148.21
  74  1 -24.94 -23.23 -19.46 -17.44 -14.13 -12.54 -10.40  -8.42  -8.04  -6.64
         -6.32  -5.85  -3.19  -0.40   2.16   2.32   2.70   3.39   4.98   7.30
          7.67   7.77   9.08  10.06  11.74  13.49  14.55  17.37  18.11  20.31
         20.71  21.27  21.90  24.51  25.94  29.26  30.28  30.71  33.73  33.84
         35.18  37.19  38.03  42.88  43.92  46.35  48.22  48.28  49.45  50.41
         53.26  55.37  58.07  65.65  66.67  69.96  70.19  75.88  76.18  78.74
         83.47  86.19 117.53 120.76 148.18
  75  1 -24.92 -23.27 -19.43 -17.37 -14.21 -12.57 -10.42  -8.39  -8.01  -6.61
         -6.36  -5.85  -3.18  -0.34   2.12   2.33   2.81   3.38   4.98   7.23
          7.61   7.75   9.08  10.06  11.75  13.49  14.60  17.27  18.06  20.27
         20.73  21.32  21.84  24.50  26.02  29.25  30.38  30.76  33.82  33.97
         35.11  37.22  37.86  42.91  43.77  46.38  47.96  48.37  49.57  50.40
         53.22  55.39  58.03  65.57  66.90  70.08  70.29  75.98  76.55  78.70
         83.53  86.11 117.69 120.96 148.15
  76  1 -24.91 -23.31 -19.41 -17.30 -14.28 -12.59 -10.44  -8.37  -7.99  -6.59
         -6.40  -5.84  -3.18  -0.28   2.07   2.34   2.91   3.39   4.97   7.16
          7.55   7.74   9.07  10.06  11.75  13.48  14.66  17.16  18.02  20.24
         20.76  21.38  21.78  24.49  26.11  29.25  30.48  30.80  33.81  34.22
         35.05  37.25  37.69  42.94  43.62  46.41  47.70  48.45  49.68  50.39
         53.19  55.40  57.98  65.50  67.14  70.19  70.39  76.08  76.95  78.66
         83.58  86.04 117.80 121.17 148.13
  77  1 -24.89 -23.35 -19.39 -17.23 -14.36 -12.61 -10.47  -8.35  -7.97  -6.56
         -6.44  -5.83  -3.17  -0.23   2.03   2.34   3.01   3.40   4.97   7.09
          7.48   7.73   9.06  10.06  11.76  13.48  14.72  17.06  17.97  20.21
         20.78  21.45  21.72  24.48  26.19  29.24  30.58  30.85  33.80  34.46
         34.99  37.29  37.52  42.96  43.47  46.44  47.44  48.53  49.80  50.38
         53.16  55.42  57.93  65.44  67.37  70.28  70.50  76.18  77.36  78.62
         83.61  85.98 117.85 121.40 148.10
  78  1 -24.87 -23.39 -19.37 -17.16 -14.44 -12.64 -10.49  -8.33  -7.95  -6.53
         -6.48  -5.83  -3.16  -0.17   1.99   2.34   3.11   3.42   4.96   7.01
          7.42   7.72   9.05  10.05  11.77  13.46  14.78  16.97  17.93  20.17
         20.81  21.52  21.67  24.48  26.27  29.23  30.68  30.89  33.80  34.70
         34.93  37.32  37.37  42.98  43.32  46.46  47.18  48.60  49.91  50.38
         53.14  55.45  57.87  65.40  67.61  70.37  70.62  76.26  77.77  78.63
         83.63  85.92 117.84 121.66 148.07
  79  1 -24.86 -23.42 -19.35 -17.09 -14.52 -12.66 -10.51  -8.31  -7.93  -6.51
         -6.50  -5.82  -3.16  -0.11   1.94   2.33   3.21   3.46   4.96   6.93
          7.37   7.71   9.04  10.05  11.78  13.45  14.84  16.89  17.88  20.14
         20.84  21.59  21.62  24.48  26.35  29.22  30.78  30.94  33.80  34.88
         34.94  37.22  37.36  43.00  43.17  46.48  46.92  48.67  50.02  50.38
         53.14  55.48  57.80  65.36  67.84  70.44  70.73  76.33  78.08  78.75
         83.65  85.86 117.78 121.92 148.05
  80  1 -24.84 -23.46 -19.34 -17.01 -14.60 -12.68 -10.54  -8.29  -7.91  -6.55
         -6.47  -5.81  -3.15  -0.06   1.90   2.31   3.29   3.51   4.95   6.84
          7.31   7.70   9.03  10.04  11.79  13.43  14.90  16.81  17.84  20.12
         20.87  21.57  21.67  24.48  26.43  29.21  30.88  30.98  33.81  34.83
         35.18  37.08  37.40  43.01  43.02  46.50  46.65  48.73  50.12  50.39
         53.14  55.51  57.72  65.34  68.08  70.50  70.85  76.38  78.18  79.12
         83.65  85.81 117.67 122.21 148.03
  81  1 -24.82 -23.49 -19.32 -16.94 -14.68 -12.70 -10.56  -8.27  -7.89  -6.59
         -6.44  -5.80  -3.15   0.00   1.85   2.30   3.36   3.58   4.94   6.75
          7.26   7.70   9.02  10.03  11.81  13.41  14.96  16.74  17.80  20.09
         20.90  21.52  21.74  24.49  26.51  29.20  30.98  31.02  33.82  34.78
         35.40  36.95  37.45  42.86  43.04  46.39  46.52  48.78  50.22  50.40
         53.15  55.54  57.63  65.34  68.32  70.55  70.97  76.43  78.17  79.63
         83.64  85.76 117.52 122.50 148.01
  82  1 -24.81 -23.52 -19.30 -16.86 -14.76 -12.73 -10.58  -8.25  -7.87  -6.62
         -6.41  -5.80  -3.14   0.06   1.80   2.28   3.42   3.67   4.94   6.65
          7.21   7.69   9.01  10.02  11.82  13.38  15.01  16.68  17.76  20.07
         20.93  21.48  21.82  24.50  26.58  29.19  31.06  31.08  33.83  34.73
         35.61  36.85  37.49  42.71  43.05  46.13  46.54  48.82  50.32  50.42
         53.17  55.58  57.53  65.35  68.56  70.59  71.09  76.46  78.12  80.21
         83.62  85.72 117.33 122.80 147.98
  83  1 -24.79 -23.55 -19.29 -16.79 -14.84 -12.75 -10.61  -8.24  -7.85  -6.65
         -6.38  -5.79  -3.14   0.11   1.76   2.26   3.48   3.77   4.93   6.55
          7.17   7.68   8.99  10.01  11.83  13.35  15.06  16.63  17.73  20.04
         20.97  21.44  21.90  24.51  26.66  29.18  31.10  31.17  33.85  34.68
         35.79  36.78  37.54  42.56  43.06  45.86  46.56  48.86  50.41  50.44
         53.20  55.62  57.41  65.39  68.80  70.61  71.20  76.48  78.05  80.84
         83.59  85.68 117.11 123.11 147.96
  84  1 -24.78 -23.58 -19.27 -16.71 -14.92 -12.77 -10.63  -8.22  -7.84  -6.68
         -6.35  -5.78  -3.14   0.17   1.71   2.24   3.53   3.88   4.92   6.45
          7.12   7.68   8.98  10.00  11.85  13.32  15.11  16.59  17.69  20.02
         21.00  21.40  21.98  24.53  26.73  29.16  31.14  31.27  33.88  34.64
         35.91  36.78  37.59  42.42  43.07  45.60  46.57  48.89  50.46  50.50
         53.24  55.67  57.28  65.44  69.04  70.62  71.32  76.49  77.98  81.51
         83.56  85.65 116.85 123.41 147.93
  85  1 -24.76 -23.61 -19.26 -16.63 -15.00 -12.79 -10.65  -8.21  -7.82  -6.71
         -6.32  -5.77  -3.13   0.22   1.66   2.22   3.58   3.99   4.91   6.35
          7.08   7.67   8.96   9.98  11.86  13.28  15.16  16.56  17.66  20.00
         21.04  21.37  22.05  24.55  26.79  29.15  31.18  31.37  33.90  34.59
         35.95  36.86  37.64  42.27  43.07  45.34  46.58  48.91  50.50  50.58
         53.29  55.71  57.14  65.52  69.28  70.62  71.43  76.48  77.91  82.22
         83.51  85.61 116.58 123.71 147.90
  86  1 -24.75 -23.63 -19.25 -16.56 -15.08 -12.81 -10.67  -8.20  -7.80  -6.73
         -6.29  -5.76  -3.13   0.28   1.61   2.20   3.63   4.10   4.91   6.25
          7.03   7.66   8.95   9.97  11.88  13.24  15.20  16.54  17.63  19.98
         21.09  21.34  22.12  24.58  26.86  29.13  31.22  31.46  33.94  34.55
         35.93  37.01  37.70  42.12  43.08  45.08  46.59  48.93  50.55  50.66
         53.35  55.76  57.00  65.61  69.52  70.60  71.54  76.46  77.83  82.97
         83.47  85.58 116.28 124.02 147.87
  87  1 -24.74 -23.65 -19.23 -16.48 -15.16 -12.83 -10.69  -8.19  -7.79  -6.76
         -6.26  -5.75  -3.13   0.33   1.57   2.18   3.68   4.22   4.90   6.15
          6.99   7.66   8.93   9.95  11.89  13.19  15.23  16.53  17.60  19.97
         21.13  21.31  22.19  24.62  26.92  29.11  31.25  31.56  33.98  34.51
         35.87  37.21  37.75  41.98  43.08  44.82  46.59  48.93  50.60  50.73
         53.41  55.81  56.84  65.72  69.75  70.58  71.65  76.43  77.75  83.41
         83.76  85.55 115.96 124.31 147.82
  88  1 -24.73 -23.67 -19.22 -16.41 -15.24 -12.85 -10.71  -8.18  -7.77  -6.78
         -6.23  -5.74  -3.12   0.38   1.52   2.16   3.73   4.33   4.89   6.04
          6.96   7.65   8.91   9.93  11.91  13.14  15.26  16.54  17.57  19.95
         21.18  21.28  22.26  24.66  26.99  29.09  31.28  31.65  34.02  34.47
         35.80  37.42  37.81  41.84  43.08  44.56  46.59  48.93  50.66  50.79
         53.48  55.87  56.68  65.85  69.96  70.57  71.76  76.38  77.66  83.35
         84.58  85.52 115.63 124.60 147.77
  89  1 -24.73 -23.68 -19.21 -16.33 -15.32 -12.87 -10.73  -8.17  -7.76  -6.80
         -6.20  -5.74  -3.12   0.43   1.47   2.14   3.78   4.44   4.88   5.94
          6.92   7.65   8.90   9.91  11.92  13.09  15.29  16.56  17.54  19.94
         21.23  21.26  22.32  24.71  27.05  29.07  31.32  31.74  34.07  34.44
         35.72  37.65  37.87  41.70  43.08  44.31  46.59  48.93  50.72  50.85
         53.56  55.92  56.51  66.00  70.12  70.58  71.86  76.32  77.58  83.29
         85.45  85.49 115.29 124.89 147.71
  90  1 -24.72 -23.69 -19.20 -16.26 -15.39 -12.88 -10.75  -8.17  -7.75  -6.81
         -6.17  -5.73  -3.12   0.48   1.43   2.12   3.83   4.55   4.87   5.84
          6.88   7.64   8.88   9.89  11.94  13.03  15.30  16.59  17.52  19.93
         21.24  21.29  22.37  24.77  27.10  29.04  31.34  31.82  34.12  34.40
         35.64  37.88  37.93  41.56  43.08  44.06  46.58  48.92  50.79  50.90
         53.63  55.98  56.35  66.16  70.18  70.69  71.97  76.25  77.50  83.22
         85.47  86.35 114.94 125.16 147.63
  91  1 -24.72 -23.70 -19.19 -16.19 -15.46 -12.90 -10.77  -8.16  -7.75  -6.82
         -6.14  -5.72  -3.12   0.52   1.38   2.10   3.88   4.66   4.86   5.74
          6.85   7.64   8.86   9.87  11.96  12.98  15.32  16.63  17.50  19.92
         21.22  21.35  22.42  24.83  27.16  29.02  31.37  31.91  34.18  34.37
         35.57  38.00  38.11  41.43  43.07  43.81  46.57  48.91  50.86  50.95
         53.69  56.04  56.20  66.34  70.14  70.89  72.07  76.16  77.42  83.15
         85.44  87.29 114.60 125.43 147.54
  92  1 -24.72 -23.71 -19.18 -16.13 -15.53 -12.92 -10.79  -8.16  -7.74  -6.83
         -6.11  -5.71  -3.11   0.56   1.34   2.08   3.92   4.77   4.85   5.65
          6.82   7.63   8.85   9.85  11.97  12.92  15.32  16.67  17.48  19.91
         21.21  21.40  22.47  24.91  27.21  28.98  31.40  31.99  34.23  34.34
         35.50  38.06  38.33  41.31  43.07  43.56  46.55  48.90  50.92  51.00
         53.75  56.06  56.10  66.53  70.06  71.11  72.17  76.07  77.35  83.07
         85.41  88.27 114.25 125.69 147.43
  93  1 -24.72 -23.71 -19.17 -16.08 -15.58 -12.94 -10.80  -8.16  -7.74  -6.83
         -6.08  -5.69  -3.11   0.60   1.30   2.07   3.97   4.84   4.87   5.57
          6.78   7.63   8.83   9.83  11.99  12.85  15.33  16.73  17.46  19.91
         21.20  21.47  22.50  24.99  27.26  28.94  31.42  32.07  34.27  34.32
         35.44  38.13  38.55  41.19  43.06  43.32  46.52  48.88  50.98  51.05
         53.79  55.95  56.17  66.74  69.95  71.35  72.27  75.96  77.28  83.00
         85.38  89.29 113.90 125.93 147.31
  94  1 -24.72 -23.71 -19.16 -16.06 -15.60 -12.95 -10.82  -8.16  -7.74  -6.83
         -6.05  -5.68  -3.11   0.63   1.27   2.06   4.01   4.82   4.95   5.50
          6.76   7.62   8.81   9.81  12.01  12.79  15.33  16.79  17.45  19.90
         21.19  21.53  22.54  25.08  27.30  28.90  31.44  32.15  34.26  34.37
         35.39  38.20  38.77  41.08  43.05  43.09  46.49  48.86  51.01  51.12
         53.80  55.88  56.23  66.96  69.82  71.59  72.37  75.84  77.21  82.92
         85.34  90.33 113.56 126.17 147.17
  95  1 -24.72 -23.70 -19.15 -16.06 -15.60 -12.97 -10.84  -8.16  -7.75  -6.83
         -6.02  -5.67  -3.11   0.65   1.25   2.05   4.05   4.80   5.02   5.47
          6.73   7.62   8.79   9.78  12.02  12.73  15.33  16.86  17.44  19.90
         21.18  21.60  22.56  25.18  27.35  28.86  31.46  32.23  34.23  34.44
         35.34  38.27  38.97  40.99  42.85  43.04  46.46  48.84  51.03  51.20
         53.77  55.85  56.30  67.19  69.67  71.83  72.46  75.71  77.16  82.84
         85.31  91.41 113.23 126.39 147.00
  96  1 -24.73 -23.69 -19.15 -16.10 -15.57 -12.98 -10.85  -8.17  -7.75  -6.82
         -5.99  -5.66  -3.11   0.66   1.23   2.04   4.08   4.76   5.05   5.48
          6.71   7.61   8.78   9.76  12.04  12.66  15.33  16.93  17.43  19.90
         21.18  21.66  22.58  25.28  27.39  28.81  31.48  32.31  34.20  34.51
         35.30  38.34  39.15  40.92  42.63  43.04  46.41  48.82  51.04  51.28
         53.70  55.87  56.37  67.43  69.51  72.07  72.56  75.56  77.11  82.76
         85.27  92.52 112.92 126.59 146.81
  97  1 -24.74 -23.68 -19.14 -16.15 -15.52 -13.00 -10.87  -8.17  -7.76  -6.81
         -5.97  -5.64  -3.11   0.66   1.23   2.03   4.10   4.72   5.06   5.52
          6.69   7.61   8.76   9.73  12.05  12.59  15.33  17.01  17.42  19.90
         21.18  21.74  22.60  25.39  27.43  28.75  31.50  32.38  34.17  34.58
         35.26  38.41  39.31  40.87  42.41  43.03  46.36  48.79  51.03  51.36
         53.61  55.94  56.44  67.67  69.34  72.31  72.65  75.41  77.08  82.68
         85.24  93.65 112.62 126.78 146.60
  98  1 -24.75 -23.67 -19.13 -16.21 -15.45 -13.01 -10.88  -8.18  -7.78  -6.79
         -5.94  -5.63  -3.11   0.65   1.23   2.03   4.12   4.66   5.06   5.59
          6.67   7.60   8.74   9.71  12.07  12.53  15.32  17.09  17.42  19.90
         21.18  21.81  22.61  25.51  27.47  28.69  31.52  32.45  34.14  34.65
         35.23  38.47  39.43  40.86  42.20  43.02  46.31  48.76  51.02  51.45
         53.48  56.05  56.51  67.92  69.15  72.55  72.74  75.26  77.06  82.59
         85.20  94.81 112.35 126.96 146.37
  99  1 -24.76 -23.65 -19.13 -16.28 -15.38 -13.02 -10.90  -8.19  -7.79  -6.77
         -5.91  -5.61  -3.11   0.62   1.25   2.02   4.13   4.60   5.06   5.67
          6.66   7.60   8.73   9.68  12.08  12.46  15.32  17.17  17.42  19.90
         21.18  21.88  22.62  25.63  27.50  28.63  31.53  32.52  34.11  34.72
         35.20  38.54  39.50  40.88  42.01  43.01  46.24  48.73  50.99  51.53
         53.34  56.19  56.59  68.18  68.96  72.78  72.83  75.09  77.06  82.51
         85.16  95.97 112.11 127.12 146.10
 100  1 -24.78 -23.63 -19.12 -16.36 -15.31 -13.03 -10.91  -8.20  -7.80  -6.75
         -5.89  -5.60  -3.11   0.59   1.27   2.02   4.12   4.53   5.07   5.75
          6.66   7.59   8.71   9.66  12.10  12.39  15.31  17.24  17.43  19.91
         21.19  21.96  22.62  25.76  27.53  28.56  31.55  32.59  34.09  34.79
         35.18  38.61  39.54  40.93  41.84  43.00  46.17  48.69  50.95  51.61
         53.20  56.35  56.66  68.44  68.75  72.91  73.01  74.92  77.08  82.43
         85.12  97.14 111.91 127.26 145.82
 101  1 -24.79 -23.61 -19.12 -16.43 -15.23 -13.05 -10.92  -8.21  -7.82  -6.73
         -5.86  -5.58  -3.11   0.55   1.30   2.02   4.09   4.48   5.09   5.83
          6.66   7.59   8.70   9.63  12.11  12.33  15.31  17.31  17.46  19.92
         21.20  22.03  22.62  25.89  27.56  28.48  31.56  32.66  34.06  34.86
         35.16  38.67  39.54  40.97  41.73  42.99  46.10  48.65  50.89  51.70
         53.06  56.54  56.74  68.53  68.70  72.99  73.22  74.76  77.13  82.34
         85.07  98.30 111.76 127.39 145.50
 102  1 -24.81 -23.58 -19.11 -16.51 -15.15 -13.06 -10.93  -8.23  -7.84  -6.70
         -5.84  -5.56  -3.11   0.51   1.34   2.02   4.04   4.44   5.11   5.90
          6.68   7.58   8.68   9.60  12.12  12.27  15.30  17.35  17.51  19.92
         21.21  22.11  22.62  26.03  27.59  28.41  31.57  32.73  34.03  34.93
         35.14  38.73  39.51  40.96  41.70  42.99  46.02  48.60  50.81  51.77
         52.93  56.75  56.81  68.30  68.95  73.06  73.42  74.60  77.21  82.26
         85.03  99.44 111.66 127.49 145.16
 103  1 -24.83 -23.55 -19.11 -16.59 -15.08 -13.07 -10.94  -8.24  -7.86  -6.67
         -5.82  -5.54  -3.11   0.46   1.37   2.03   3.97   4.41   5.14   5.96
          6.71   7.57   8.67   9.58  12.12  12.22  15.30  17.38  17.59  19.93
         21.23  22.19  22.61  26.17  27.62  28.33  31.58  32.80  34.01  35.00
         35.12  38.79  39.46  40.88  41.77  42.98  45.93  48.54  50.71  51.85
         52.81  56.89  56.96  68.06  69.20  73.12  73.58  74.47  77.33  82.17
         84.98 100.54 111.65 127.58 144.79
 104  1 -24.84 -23.52 -19.11 -16.67 -15.00 -13.08 -10.95  -8.26  -7.88  -6.64
         -5.80  -5.52  -3.11   0.41   1.41   2.03   3.88   4.40   5.17   6.01
          6.75   7.57   8.65   9.55  12.09  12.19  15.29  17.39  17.67  19.95
         21.25  22.26  22.61  26.31  27.63  28.25  31.59  32.86  33.99  35.06
         35.10  38.84  39.40  40.76  41.91  42.98  45.84  48.48  50.60  51.92
         52.72  56.96  57.19  67.82  69.45  73.16  73.65  74.42  77.49  82.09
         84.94 101.57 111.73 127.65 144.39
 105  1 -24.86 -23.49 -19.11 -16.74 -14.92 -13.09 -10.96  -8.28  -7.90  -6.61
         -5.78  -5.50  -3.11   0.36   1.45   2.04   3.79   4.38   5.20   6.04
          6.80   7.56   8.64   9.53  12.04  12.19  15.29  17.41  17.76  19.96
         21.27  22.34  22.60  26.46  27.65  28.17  31.60  32.93  33.97  35.08
         35.13  38.88  39.33  40.63  42.09  42.97  45.75  48.40  50.47  51.99
         52.64  57.04  57.43  67.56  69.68  73.20  73.60  74.48  77.70  82.01
         84.89 102.50 111.94 127.69 143.97
 106  1 -24.88 -23.46 -19.11 -16.82 -14.84 -13.10 -10.97  -8.30  -7.92  -6.58
         -5.76  -5.48  -3.11   0.30   1.49   2.05   3.69   4.37   5.23   6.07
          6.87   7.55   8.62   9.50  11.98  12.20  15.28  17.42  17.85  19.97
         21.30  22.41  22.60  26.61  27.65  28.09  31.61  32.99  33.95  35.06
         35.19  38.92  39.25  40.50  42.28  42.97  45.65  48.30  50.32  52.05
         52.59  57.12  57.67  67.30  69.91  73.22  73.47  74.61  77.96  81.92
         84.85 103.31 112.29 127.72 143.52
 107  1 -24.90 -23.43 -19.11 -16.90 -14.76 -13.10 -10.97  -8.32  -7.94  -6.54
         -5.74  -5.46  -3.12   0.25   1.53   2.06   3.58   4.36   5.27   6.08
          6.94   7.55   8.61   9.48  11.92  12.21  15.27  17.44  17.95  19.99
         21.32  22.47  22.61  26.76  27.65  28.02  31.61  33.05  33.94  35.04
         35.25  38.95  39.16  40.38  42.49  42.97  45.56  48.20  50.17  52.11
         52.56  57.19  57.91  67.03  70.13  73.23  73.30  74.78  78.27  81.84
         84.80 103.97 112.81 127.72 143.04
 108  1 -24.92 -23.39 -19.11 -16.98 -14.68 -13.11 -10.98  -8.35  -7.96  -6.50
         -5.72  -5.44  -3.12   0.19   1.57   2.08   3.47   4.35   5.30   6.09
          7.03   7.54   8.60   9.45  11.86  12.22  15.27  17.46  18.04  20.01
         21.35  22.49  22.66  26.91  27.62  27.97  31.61  33.11  33.93  35.01
         35.31  38.97  39.06  40.28  42.69  42.96  45.45  48.07  50.02  52.16
         52.55  57.27  58.16  66.75  70.34  73.10  73.22  74.95  78.63  81.76
         84.76 104.48 113.48 127.70 142.54
 109  1 -24.94 -23.35 -19.12 -17.05 -14.60 -13.12 -10.99  -8.37  -7.99  -6.47
         -5.71  -5.41  -3.12   0.13   1.61   2.09   3.37   4.34   5.34   6.09
          7.11   7.54   8.58   9.43  11.80  12.23  15.26  17.48  18.14  20.03
         21.39  22.49  22.72  27.06  27.57  27.94  31.61  33.16  33.92  34.99
         35.37  38.96  38.98  40.21  42.91  42.96  45.35  47.93  49.86  52.19
         52.56  57.34  58.41  66.47  70.53  72.90  73.20  75.13  79.05  81.67
         84.72 104.85 114.31 127.66 142.02
 110  1 -24.96 -23.32 -19.12 -17.13 -14.53 -13.12 -10.99  -8.40  -8.01  -6.43
         -5.69  -5.39  -3.13   0.07   1.66   2.11   3.26   4.33   5.38   6.10
          7.20   7.54   8.57   9.41  11.75  12.24  15.25  17.50  18.23  20.05
         21.42  22.49  22.80  27.22  27.49  27.92  31.61  33.21  33.92  34.96
         35.43  38.84  38.98  40.15  42.95  43.12  45.25  47.78  49.70  52.23
         52.58  57.41  58.65  66.19  70.71  72.69  73.17  75.30  79.52  81.59
         84.68 105.10 115.24 127.60 141.47
 111  1 -24.98 -23.28 -19.13 -17.20 -14.45 -13.13 -10.99  -8.42  -8.03  -6.39
         -5.67  -5.36  -3.13   0.02   1.70   2.12   3.15   4.32   5.41   6.10
          7.28   7.54   8.55   9.38  11.69  12.25  15.25  17.52  18.33  20.07
         21.46  22.47  22.88  27.37  27.40  27.92  31.60  33.25  33.93  34.93
         35.48  38.71  38.97  40.12  42.95  43.34  45.14  47.60  49.55  52.25
         52.62  57.48  58.90  65.89  70.89  72.49  73.13  75.46  80.03  81.51
         84.64 105.27 116.25 127.52 140.90
 112  1 -25.00 -23.24 -19.13 -17.27 -14.38 -13.13 -10.99  -8.45  -8.05  -6.35
         -5.66  -5.34  -3.13  -0.04   1.74   2.14   3.04   4.31   5.44   6.10
          7.36   7.54   8.54   9.36  11.63  12.26  15.24  17.55  18.42  20.09
         21.50  22.46  22.96  27.30  27.53  27.93  31.58  33.29  33.95  34.89
         35.54  38.57  38.96  40.11  42.94  43.55  45.04  47.42  49.41  52.28
         52.66  57.55  59.14  65.60  71.05  72.28  73.09  75.62  80.59  81.42
         84.62 105.38 117.29 127.43 140.30
 113  1 -25.02 -23.19 -19.14 -17.34 -14.30 -13.14 -11.00  -8.48  -8.08  -6.30
         -5.65  -5.32  -3.14  -0.10   1.77   2.16   2.93   4.30   5.47   6.09
          7.42   7.57   8.52   9.35  11.58  12.28  15.23  17.58  18.52  20.12
[...]
         -5.99  -5.14  -3.55  -1.54   0.62   1.86   2.83   4.55   5.17   7.35
          8.29   8.79   9.09   9.68  11.82  12.47  14.61  19.11  19.84  21.02
         21.76  22.21  23.18  24.91  26.88  27.71  28.89  29.36  30.29  33.72
         36.39  37.26  39.64  41.30  44.30  46.88  47.87  48.26  50.89  52.00
         53.89  56.51  57.99  65.07  69.37  70.70  73.01  74.81  75.00  77.98
         79.38  87.36 107.74 110.74 138.09
  76  1 -25.33 -21.60 -20.72 -18.53 -12.54 -12.34  -9.71  -9.54  -8.46  -6.43
         -6.00  -5.02  -3.60  -1.60   0.50   1.97   2.83   4.54   5.30   7.16
          8.23   8.78   9.08   9.62  11.79  12.30  14.82  19.52  19.77  21.15
         22.18  22.60  22.61  25.63  26.99  27.34  29.11  29.13  30.61  33.09
         36.07  37.15  39.08  41.06  44.91  46.83  47.31  48.43  50.58  52.60
         53.75  56.32  57.14  65.97  70.26  73.10  73.22  75.00  77.23  77.50
         81.15  87.11 107.08 109.64 134.09
  77  1 -25.32 -21.78 -20.50 -18.48 -12.75 -12.38  -9.86  -9.48  -8.45  -6.26
         -5.87  -5.10  -3.54  -1.53   0.61   2.14   2.76   4.45   5.31   6.93
          8.08   8.78   8.99   9.69  11.63  12.28  14.97  19.48  20.11  20.85
         21.78  22.90  22.91  25.16  27.08  27.73  28.91  29.60  31.10  33.08
         35.62  37.25  39.56  40.40  44.77  46.95  47.08  47.22  50.31  52.91
         53.78  56.41  57.55  65.81  70.35  71.93  74.41  75.16  78.18  80.67
         83.94  86.68 109.53 111.26 131.98
  78  1 -25.29 -22.14 -20.09 -18.35 -13.04 -12.53 -10.01  -9.39  -8.40  -6.21
         -5.59  -5.35  -3.41  -1.32   0.94   2.27   2.63   4.36   5.27   6.67
          7.96   8.72   8.83   9.82  11.44  12.28  15.07  19.08  20.24  20.75
         21.22  23.03  23.20  24.67  26.80  28.37  29.37  30.41  31.75  33.30
         35.43  37.49  39.49  40.57  44.05  45.27  47.04  47.60  49.48  52.79
         54.12  56.68  58.89  65.11  69.84  70.48  74.64  76.05  79.53  80.16
         86.14  90.32 111.43 117.66 131.94
  79  1 -25.22 -22.52 -19.70 -18.14 -13.38 -12.75 -10.18  -9.24  -8.32  -6.18
         -5.66  -5.31  -3.29  -1.01   1.44   2.30   2.43   4.33   5.25   6.42
          7.87   8.52   8.65   9.89  11.36  12.25  15.13  18.53  19.81  20.73
         21.21  22.94  22.95  24.86  26.82  28.37  30.57  31.38  32.59  33.52
         35.73  37.82  38.50  41.65  43.46  43.58  47.11  48.06  48.16  52.48
         54.39  56.76  60.86  63.76  69.48  69.71  74.28  76.87  78.97  80.74
         85.58  96.98 113.86 124.28 134.41
  80  1 -25.12 -22.88 -19.39 -17.81 -13.79 -12.97 -10.34  -9.05  -8.21  -6.14
         -5.99  -5.12  -3.20  -0.62   2.03   2.17   2.28   4.33   5.29   6.22
          7.75   8.09   8.58   9.84  11.46  12.21  15.19  18.00  19.37  20.34
         21.54  22.42  22.78  25.40  26.88  28.44  31.63  31.96  33.56  33.99
         36.30  37.70  38.54  41.97  42.19  43.85  46.56  47.15  48.57  52.12
         54.37  56.70  61.93  63.07  68.97  70.19  73.83  77.27  77.78  81.53
         85.16 101.94 116.64 129.64 138.29
  81  1 -25.00 -23.21 -19.20 -17.36 -14.29 -13.11 -10.49  -8.83  -8.06  -6.31
         -6.10  -5.07  -3.14  -0.18   1.87   2.04   2.91   4.36   5.34   6.09
          7.44   7.67   8.63   9.73  11.67  12.19  15.24  17.59  18.87  20.05
         21.65  21.95  22.65  25.95  26.72  28.68  32.19  32.22  34.34  34.37
         36.35  37.60  39.69  41.25  42.21  44.73  44.85  47.23  49.18  51.91
         53.97  56.53  60.06  65.30  68.53  71.08  73.82  76.51  77.15  81.81
         85.06 104.44 118.66 134.13 140.41
  82  1 -24.86 -23.48 -19.13 -16.81 -14.85 -13.14 -10.60  -8.62  -7.91  -6.59
         -6.06  -5.17  -3.11   0.26   1.54   1.95   3.71   4.40   5.26   6.01
          6.75   7.61   8.77   9.64  11.87  12.27  15.28  17.33  18.29  19.89
         21.53  21.58  22.65  26.26  26.41  29.04  32.17  32.32  34.46  34.74
         35.81  38.38  39.96  40.90  42.73  43.25  45.27  47.72  49.90  52.09
         53.34  56.30  58.39  67.39  67.89  71.91  74.29  75.26  76.58  81.97
         85.25 105.20 117.62 132.26 143.52
  83  1 -24.75 -23.67 -19.13 -16.25 -15.42 -13.08 -10.66  -8.44  -7.78  -6.79
         -6.06  -5.39  -3.11   0.61   1.27   1.94   4.20   4.64   5.12   5.64
          6.47   7.61   8.92   9.68  11.90  12.58  15.29  17.15  17.72  19.84
         21.32  21.36  22.68  25.59  26.71  29.34  31.77  32.30  34.34  35.04
         35.13  38.96  39.25  40.98  42.63  42.89  45.65  48.36  50.50  52.06
         53.46  56.04  57.03  67.02  69.09  71.88  73.62  75.59  76.27  82.36
         85.47 101.39 113.69 128.58 146.58
  84  1 -24.72 -23.70 -19.17 -16.20 -15.46 -13.04 -10.38  -8.67  -7.75  -6.82
         -6.13  -5.43  -3.11   0.52   1.37   1.93   4.13   4.72   4.86   5.77
          6.47   7.63   9.16   9.83  11.64  12.98  15.27  17.05  17.77  19.80
         20.57  21.52  22.65  25.16  26.24  29.87  31.64  32.04  34.03  35.29
         35.31  37.81  39.01  41.57  42.79  43.87  45.24  48.62  50.25  51.76
         54.33  55.31  57.36  65.72  69.67  70.89  73.12  75.80  77.12  82.65
         85.77  98.08 115.13 127.91 148.07
  85  1 -24.79 -23.56 -19.26 -16.76 -14.89 -12.86 -10.39  -8.57  -7.85  -6.66
         -6.25  -5.65  -3.13   0.15   1.72   2.09   3.66   3.99   4.89   6.54
          6.81   7.68   9.24   9.92  11.62  13.23  15.11  17.01  17.79  19.96
         20.55  21.59  22.25  24.75  26.21  29.63  31.25  31.48  33.92  34.99
         35.67  36.72  37.87  42.50  42.84  45.57  45.61  48.83  49.92  51.28
         54.13  55.21  57.72  65.64  68.49  70.84  71.89  76.75  77.06  83.11
         85.84  87.57 116.14 124.71 148.33
  86  1 -24.91 -23.31 -19.40 -17.31 -14.29 -12.65 -10.34  -8.54  -8.00  -6.48
         -6.40  -5.80  -3.17  -0.28   2.06   2.24   2.92   3.57   4.95   7.13
          7.38   7.77   9.22  10.01  11.63  13.39  14.74  17.34  18.04  20.21
         20.58  21.60  21.85  24.59  25.93  29.40  30.64  30.86  33.90  34.20
         35.08  37.27  37.59  42.80  43.61  45.94  47.59  48.49  49.59  50.81
         53.65  55.18  58.15  65.99  66.88  70.34  70.65  76.45  76.88  80.36
         83.34  86.06 117.04 121.99 148.15
  87  1 -25.03 -22.99 -19.59 -17.79 -13.72 -12.43 -10.24  -8.60  -8.14  -6.75
         -6.08  -5.89  -3.23  -0.70   2.10   2.24   2.37   3.58   5.00   7.56
          7.79   8.07   9.14  10.02  11.69  13.42  14.30  18.08  18.37  20.52
         20.53  21.16  22.30  24.65  25.41  29.33  29.81  30.49  32.40  34.00
         35.58  37.04  38.97  42.65  44.77  46.07  47.77  48.80  49.51  50.55
         53.64  55.29  58.41  65.31  66.31  69.27  69.84  74.71  75.32  78.99
         82.89  86.63 115.83 119.82 148.22
  88  1 -25.14 -22.62 -19.86 -18.16 -13.22 -12.25 -10.09  -8.76  -8.27  -6.95
         -5.94  -5.74  -3.32  -1.07   1.47   1.95   2.61   3.93   5.02   7.83
          7.97   8.54   9.06   9.94  11.79  13.34  13.95  18.63  19.01  20.27
         20.90  21.34  22.95  24.76  24.98  29.14  29.38  30.15  30.71  34.15
         36.21  37.23  40.33  42.31  45.58  46.00  47.15  47.69  50.56  50.90
         53.91  55.67  59.09  63.69  66.50  68.03  69.99  73.39  74.24  78.91
         81.70  87.30 113.11 117.13 147.90
  89  1 -25.22 -22.23 -20.20 -18.40 -12.80 -12.15  -9.92  -8.99  -8.36  -7.04
         -5.97  -5.42  -3.43  -1.36   0.95   1.74   2.78   4.33   5.04   7.80
          8.25   8.77   9.07   9.80  11.88  13.11  13.86  18.83  19.51  20.46
         21.32  21.72  23.76  24.07  25.71  28.69  29.01  29.52  30.00  34.26
         36.43  37.95  41.38  41.77  44.18  46.87  47.21  47.35  50.65  51.46
         53.98  56.21  60.45  61.69  67.37  67.76  70.16  73.42  73.89  78.65
         79.94  87.79 110.10 113.39 146.08
  90  1 -25.28 -21.86 -20.54 -18.53 -12.50 -12.17  -9.76  -9.23  -8.42  -7.01
         -6.00  -5.16  -3.55  -1.55   0.62   1.66   2.87   4.60   5.11   7.68
          8.43   8.78   9.19   9.64  11.95  12.79  14.04  19.01  19.54  20.99
         21.76  21.99  23.40  24.72  26.71  27.69  28.51  29.63  29.81  34.16
         36.54  37.95  40.82  41.90  43.74  46.76  47.07  48.76  50.93  51.29
         53.93  56.51  59.54  62.06  67.69  69.99  70.33  74.05  74.48  77.90
         78.39  87.97 106.98 110.44 142.96
  91  1 -25.30 -21.65 -20.73 -18.56 -12.36 -12.28  -9.67  -9.40  -8.44  -6.86
         -6.02  -5.05  -3.60  -1.61   0.51   1.71   2.89   4.64   5.19   7.52
          8.47   8.76   9.21   9.56  11.96  12.54  14.32  19.26  19.48  21.26
         22.07  22.10  22.95  25.40  26.96  27.24  28.62  29.53  29.95  33.82
         36.76  37.21  39.88  41.85  44.37  46.81  47.10  49.52  50.81  51.44
         53.87  56.46  58.18  63.83  68.59  70.48  71.93  74.45  75.38  76.55
         78.72  87.81 105.69 109.45 140.05
  92  1 -25.30 -21.83 -20.52 -18.51 -12.58 -12.29  -9.67  -9.48  -8.43  -6.65
         -5.98  -5.14  -3.54  -1.54   0.62   1.86   2.83   4.55   5.19   7.35
          8.33   8.77   9.11   9.65  11.80  12.46  14.59  19.28  19.69  21.04
         21.79  22.16  23.14  24.91  26.87  27.73  28.92  29.31  30.32  33.80
         36.38  37.03  39.93  41.30  44.50  46.90  47.60  48.30  50.88  52.02
         53.88  56.25  58.25  65.02  69.32  70.76  72.91  74.91  74.93  77.93
         79.33  87.36 108.09 110.35 138.40
  93  1 -25.26 -22.18 -20.14 -18.38 -12.92 -12.41  -9.73  -9.47  -8.38  -6.46
         -5.85  -5.38  -3.42  -1.34   0.94   2.04   2.70   4.41   5.12   7.08
          8.15   8.75   8.97   9.82  11.56  12.48  14.81  19.00  20.15  20.47
         21.28  22.21  23.45  24.34  26.28  28.76  29.40  29.54  30.87  33.99
         35.69  37.12  40.36  40.83  44.16  46.48  47.18  48.07  50.28  52.34
         54.09  56.12  59.47  64.65  69.46  69.69  73.41  75.46  77.02  79.66
         81.31  86.70 110.61 114.99 138.19
  94  1 -25.19 -22.56 -19.76 -18.15 -13.32 -12.62  -9.84  -9.40  -8.30  -6.35
         -5.69  -5.60  -3.30  -1.04   1.45   2.17   2.50   4.32   5.05   6.76
          8.00   8.50   8.90   9.98  11.38  12.48  14.97  18.55  19.84  20.61
         20.78  22.24  23.12  24.55  26.02  28.81  30.46  30.58  31.68  33.95
         35.45  37.32  39.20  41.79  43.89  44.76  47.56  48.32  48.97  52.26
         54.46  56.03  61.30  63.08  68.93  69.61  72.80  76.52  77.60  81.08
         85.99  87.62 112.77 120.61 139.58
  95  1 -25.09 -22.92 -19.45 -17.80 -13.78 -12.85  -9.97  -9.27  -8.19  -6.28
         -6.02  -5.35  -3.21  -0.65   2.01   2.24   2.24   4.34   5.02   6.46
          7.84   8.06   8.86  10.04  11.35  12.47  15.11  18.04  19.37  20.36
         20.84  22.34  22.59  25.06  26.04  28.84  31.43  31.59  32.88  33.85
         35.79  37.83  38.04  42.19  43.28  44.12  47.30  47.89  48.53  51.99
         54.72  55.91  61.32  63.38  68.28  70.13  72.48  77.28  77.30  81.95
         85.46  95.44 115.01 125.33 142.13
  96  1 -24.97 -23.24 -19.25 -17.34 -14.30 -13.04 -10.10  -9.12  -8.04  -6.34
         -6.21  -5.18  -3.15  -0.21   1.93   2.00   2.91   4.40   5.08   6.22
          7.40   7.74   8.84   9.97  11.45  12.48  15.21  17.61  18.94  20.03
         20.84  22.15  22.52  25.51  26.09  29.06  31.98  32.24  33.98  34.10
         36.20  37.32  39.04  42.15  42.22  44.62  45.54  47.97  48.96  51.80
         54.64  55.77  59.83  65.50  67.52  70.88  72.80  76.56  77.54  82.20
         85.33 101.71 117.00 130.70 143.94
  97  1 -24.85 -23.50 -19.15 -16.80 -14.87 -13.14 -10.22  -8.96  -7.89  -6.61
         -6.15  -5.13  -3.12   0.23   1.59   1.89   3.72   4.44   5.15   6.05
          6.70   7.64   8.89   9.88  11.58  12.55  15.27  17.32  18.51  19.83
         20.74  21.81  22.68  25.86  25.97  29.44  32.17  32.43  34.14  34.64
         36.20  37.66  40.27  41.46  42.47  43.93  44.91  47.96  49.55  51.93
         54.22  55.61  58.65  66.77  67.49  71.46  73.61  75.55  77.32  82.17
         85.48 104.68 118.13 135.43 143.89
  98  1 -24.74 -23.68 -19.13 -16.24 -15.43 -13.14 -10.32  -8.80  -7.77  -6.80
         -6.11  -5.23  -3.10   0.58   1.30   1.86   4.26   4.64   5.15   5.66
          6.31   7.61   9.01   9.81  11.65  12.72  15.30  17.16  18.07  19.75
         20.64  21.60  22.75  25.63  26.11  29.81  32.10  32.20  34.14  34.87
         35.82  38.35  40.19  41.22  42.71  43.12  45.02  48.23  50.11  52.11
         54.00  55.45  57.75  66.14  69.09  71.41  74.35  74.69  77.08  82.29
         85.66 104.55 116.84 132.47 146.15
  99  1 -24.73 -23.69 -19.15 -16.22 -15.45 -13.12 -10.04  -9.07  -7.76  -6.81
         -6.14  -5.25  -3.11   0.54   1.35   1.84   4.25   4.69   4.96   5.77
          6.28   7.62   9.12   9.99  11.43  12.95  15.29  17.15  18.13  19.73
         20.12  21.71  22.76  25.42  25.83  30.13  32.00  32.11  33.96  35.04
         35.88  37.69  40.03  41.57  42.64  43.77  44.71  48.53  49.92  51.95
         54.56  54.98  57.97  65.49  69.33  71.01  73.67  75.31  77.52  82.44
         85.83 103.34 117.08 132.19 147.20
 100  1 -24.81 -23.55 -19.22 -16.77 -14.88 -12.99 -10.07  -8.99  -7.86  -6.65
         -6.20  -5.43  -3.13   0.17   1.68   1.96   3.72   4.26   4.86   6.44
          6.63   7.68   9.25  10.00  11.41  13.06  15.18  17.27  18.11  19.88
         20.18  21.80  22.49  25.15  25.79  29.85  31.65  31.79  33.88  35.32
         35.51  36.80  38.57  42.37  42.61  44.97  45.18  48.74  49.63  51.62
         54.72  54.95  58.15  65.88  68.04  71.06  72.46  76.29  77.51  82.74
         85.82  95.88 116.19 127.02 148.17
 101  1 -24.93 -23.29 -19.36 -17.31 -14.30 -12.78 -10.09  -8.93  -8.01  -6.38
         -6.33  -5.65  -3.17  -0.26   2.03   2.10   2.92   3.93   4.91   6.82
          7.33   7.78   9.32  10.02  11.41  13.15  14.94  17.58  18.29  20.13
         20.28  22.00  22.03  24.93  25.59  29.54  31.05  31.18  33.95  34.14
         35.26  37.41  37.51  42.57  43.44  45.18  47.10  48.54  49.34  51.35
         54.51  54.98  58.52  66.33  66.77  70.60  71.25  76.91  77.08  82.97
         85.90  86.17 116.11 123.53 147.79
 102  1 -25.05 -22.97 -19.57 -17.79 -13.74 -12.54 -10.07  -8.90  -8.15  -6.55
         -6.07  -5.82  -3.23  -0.69   2.05   2.23   2.34   3.81   4.97   7.23
          7.84   8.04   9.28  10.00  11.50  13.17  14.59  18.12  18.64  20.37
         20.48  21.48  22.43  24.88  25.20  29.39  30.12  30.69  32.42  34.12
         35.44  37.04  38.75  42.48  44.65  45.19  47.89  49.09  49.18  51.11
         54.18  55.12  58.98  64.62  67.88  69.72  69.97  76.01  76.14  80.14
         82.65  86.36 115.11 120.73 147.29
 103  1 -25.15 -22.61 -19.85 -18.16 -13.23 -12.31 -10.01  -8.92  -8.27  -6.81
         -5.92  -5.74  -3.32  -1.07   1.46   1.98   2.59   4.00   5.01   7.61
          8.02   8.50   9.16   9.91  11.67  13.14  14.21  18.64  19.15  20.30
         20.89  21.40  23.00  24.67  25.10  29.30  29.38  30.27  30.71  34.23
         36.13  36.98  40.17  42.26  44.98  45.95  47.28  48.39  50.71  50.84
         54.04  55.49  59.69  63.08  67.77  68.56  69.78  73.92  74.68  79.02
         81.59  87.11 112.93 117.44 146.98
 104  1 -25.22 -22.23 -20.19 -18.41 -12.80 -12.15  -9.92  -9.00  -8.36  -7.04
         -5.97  -5.42  -3.43  -1.37   0.95   1.75   2.78   4.33   5.05   7.80
          8.26   8.76   9.10   9.78  11.87  13.11  13.86  18.90  19.45  20.48
         21.33  21.69  23.72  24.10  25.70  28.70  29.03  29.48  30.02  34.29
         36.50  37.75  41.37  41.84  44.65  46.62  47.03  47.37  50.67  51.49
         53.98  56.10  60.43  61.79  67.32  67.73  70.19  73.36  73.95  78.65
         79.92  87.80 110.20 113.26 146.24
 105  1 -25.27 -21.87 -20.55 -18.54 -12.48 -12.11  -9.82  -9.10  -8.41  -7.16
         -6.00  -5.17  -3.55  -1.56   0.62   1.59   2.88   4.61   5.09   7.80
          8.49   8.77   9.22   9.61  12.01  13.10  13.62  19.02  19.40  20.92
         21.76  21.98  23.49  24.65  26.65  27.68  28.38  29.50  29.87  34.31
         36.52  38.35  41.88  42.12  44.03  45.11  46.85  48.87  50.61  51.41
         53.93  56.50  60.76  60.80  66.51  69.33  70.07  73.85  74.38  77.89
         78.24  88.21 106.79 110.34 144.81
 106  1 -25.29 -21.68 -20.73 -18.58 -12.33 -12.16  -9.76  -9.19  -8.44  -7.15
         -6.01  -5.07  -3.61  -1.62   0.51   1.56   2.92   4.69   5.13   7.74
          8.57   8.76   9.31   9.50  12.04  12.94  13.74  19.10  19.36  21.14
         22.01  22.07  23.17  25.26  26.94  27.17  28.36  29.56  29.79  34.24
         36.58  37.98  41.80  42.30  43.72  45.17  46.82  49.84  50.69  50.93
         53.91  56.52  59.94  61.25  66.72  69.97  70.60  74.17  75.59  76.16
         78.09  88.27 105.04 109.49 143.54
 107  1 -25.28 -21.86 -20.54 -18.53 -12.50 -12.17  -9.77  -9.23  -8.42  -7.01
         -6.00  -5.17  -3.55  -1.55   0.62   1.66   2.87   4.59   5.11   7.67
          8.45   8.76   9.22   9.61  11.95  12.79  14.04  19.12  19.44  21.00
         21.78  21.96  23.38  24.72  26.71  27.70  28.52  29.57  29.87  34.19
         36.70  37.59  41.04  41.90  44.07  46.58  46.90  48.80  50.94  51.30
         53.92  56.37  59.69  62.04  67.65  70.04  70.27  73.98  74.55  77.87
         78.38  87.97 107.14 110.26 143.15
 108  1 -25.24 -22.21 -20.17 -18.40 -12.84 -12.26  -9.80  -9.24  -8.37  -6.79
         -5.95  -5.41  -3.43  -1.36   0.95   1.85   2.75   4.38   5.06   7.51
          8.23   8.73   9.12   9.77  11.72  12.77  14.36  18.94  19.69  20.54
         21.31  21.78  23.68  24.11  25.91  28.96  28.98  29.55  30.20  34.26
         36.45  36.99  41.00  41.43  44.12  47.05  47.18  48.06  51.10  51.35
         54.03  55.94  60.51  62.30  68.58  69.36  70.71  74.08  74.55  78.86
         79.80  87.36 110.32 113.69 143.40
 109  1 -25.16 -22.59 -19.81 -18.16 -13.27 -12.46  -9.83  -9.25  -8.28  -6.55
         -5.83  -5.72  -3.31  -1.05   1.46   2.06   2.55   4.17   5.00   7.19
          8.04   8.48   9.14   9.94  11.48  12.81  14.65  18.57  19.58  20.32
         20.84  21.70  23.12  24.51  25.45  29.20  29.74  30.54  30.92  34.27
         35.66  36.99  39.76  42.04  44.26  45.60  47.46  48.73  49.96  51.67
         54.30  55.52  61.28  62.05  69.23  69.28  70.75  75.63  76.17  80.28
         81.37  86.58 112.63 118.51 144.06
 110  1 -25.07 -22.95 -19.52 -17.79 -13.76 -12.70  -9.85  -9.26  -8.17  -6.38
         -6.05  -5.62  -3.22  -0.67   2.01   2.23   2.30   4.13   4.93   6.81
          7.86   8.04   9.17  10.07  11.32  12.83  14.91  18.08  19.13  20.37
         20.41  21.91  22.58  25.00  25.36  29.21  30.69  31.19  32.51  34.07
         35.42  37.29  38.41  42.32  44.19  44.54  48.02  48.23  48.88  51.69
         54.67  55.29  60.06  63.90  68.31  70.03  71.15  76.84  77.17  82.32
         85.90  86.19 114.62 122.36 145.25
 111  1 -24.95 -23.27 -19.31 -17.33 -14.30 -12.93  -9.88  -9.25  -8.03  -6.36
         -6.26  -5.39  -3.16  -0.24   1.99   2.01   2.92   4.28   4.89   6.48
          7.36   7.78   9.13  10.09  11.30  12.83  15.11  17.63  18.76  20.06
         20.28  22.18  22.31  25.39  25.46  29.39  31.58  31.78  33.88  34.08
         35.70  37.27  38.11  42.40  42.96  44.75  46.33  48.52  48.94  51.66
         54.88  55.17  59.17  65.84  67.11  70.77  71.96  76.80  77.53  82.58
         85.62  95.00 116.04 126.16 146.53
 112  1 -24.83 -23.53 -19.19 -16.78 -14.88 -13.09  -9.92  -9.21  -7.88  -6.63
         -6.18  -5.23  -3.12   0.20   1.64   1.89   3.72   4.44   4.95   6.20
          6.65   7.67   9.06  10.06  11.37  12.83  15.24  17.32  18.49  19.83
         20.18  21.91  22.64  25.59  25.64  29.74  32.04  32.19  33.93  34.89
         36.02  37.11  39.58  42.01  42.48  44.60  44.73  48.49  49.40  51.80
         54.75  55.09  58.54  66.15  67.70  71.23  72.98  75.98  77.64  82.43
         85.68 102.23 117.23 131.60 146.62
 113  1 -24.73 -23.69 -19.14 -16.23 -15.44 -13.16  -9.98  -9.15  -7.76  -6.81
         -6.13  -5.18  -3.11   0.56   1.33   1.82   4.29   4.65   5.09   5.73
          6.23   7.61   9.04  10.01  11.43  12.86  15.30  17.16  18.28  19.71
         20.12  21.75  22.79  25.58  25.78  30.08  32.16  32.24  33.99  34.85
         36.10  37.87  40.60  41.45  42.65  43.52  44.62  48.38  49.82  52.05
         54.46  55.02  58.13  65.60  69.15  71.16  74.09  74.95  77.53  82.33
         85.79 104.92 117.99 136.04 145.49
siesta: Fermi energy =      -6.090371 eV
siesta: PDOS info: 
siesta: e1, e2, sigma, nhist:   -10.00 eV    3.00 eV    0.10 eV   2000
