<pdos>
<nspin>1</nspin>
<norbitals>  52</norbitals>
<energy_values units="eV">
            -9.99999
            -9.99349
            -9.98698
            -9.98048
            -9.97398
            -9.96747
            -9.96097
            -9.95447
            -9.94796
            -9.94146
            -9.93496
            -9.92845
            -9.92195
            -9.91545
            -9.90894
            -9.90244
            -9.89594
            -9.88943
            -9.88293
            -9.87643
            -9.86992
            -9.86342
            -9.85692
            -9.85041
            -9.84391
            -9.83741
            -9.83090
            -9.82440
            -9.81790
            -9.81140
            -9.80489
            -9.79839
            -9.79189
            -9.78538
            -9.77888
            -9.77238
            -9.76587
            -9.75937
            -9.75287
            -9.74636
            -9.73986
            -9.73336
            -9.72685
            -9.72035
            -9.71385
            -9.70734
            -9.70084
            -9.69434
            -9.68783
            -9.68133
            -9.67483
            -9.66832
            -9.66182
            -9.65532
            -9.64881
            -9.64231
            -9.63581
            -9.62930
            -9.62280
            -9.61630
            -9.60979
            -9.60329
            -9.59679
            -9.59028
            -9.58378
            -9.57728
            -9.57078
            -9.56427
            -9.55777
            -9.55127
            -9.54476
            -9.53826
            -9.53176
            -9.52525
            -9.51875
            -9.51225
            -9.50574
            -9.49924
            -9.49274
            -9.48623
            -9.47973
            -9.47323
            -9.46672
            -9.46022
            -9.45372
            -9.44721
            -9.44071
            -9.43421
            -9.42770
            -9.42120
            -9.41470
            -9.40819
            -9.40169
            -9.39519
            -9.38868
            -9.38218
            -9.37568
            -9.36917
            -9.36267
            -9.35617
            -9.34966
            -9.34316
            -9.33666
            -9.33016
            -9.32365
            -9.31715
            -9.31065
            -9.30414
            -9.29764
            -9.29114
            -9.28463
            -9.27813
            -9.27163
            -9.26512
            -9.25862
            -9.25212
            -9.24561
            -9.23911
            -9.23261
            -9.22610
            -9.21960
            -9.21310
            -9.20659
            -9.20009
            -9.19359
            -9.18708
            -9.18058
            -9.17408
            -9.16757
            -9.16107
            -9.15457
            -9.14806
            -9.14156
            -9.13506
            -9.12855
            -9.12205
            -9.11555
            -9.10904
            -9.10254
            -9.09604
            -9.08954
            -9.08303
            -9.07653
            -9.07003
            -9.06352
            -9.05702
            -9.05052
            -9.04401
            -9.03751
            -9.03101
            -9.02450
            -9.01800
            -9.01150
            -9.00499
            -8.99849
            -8.99199
            -8.98548
            -8.97898
            -8.97248
            -8.96597
            -8.95947
            -8.95297
            -8.94646
            -8.93996
            -8.93346
            -8.92695
            -8.92045
            -8.91395
            -8.90744
            -8.90094
            -8.89444
            -8.88793
            -8.88143
            -8.87493
            -8.86842
            -8.86192
            -8.85542
            -8.84892
            -8.84241
            -8.83591
            -8.82941
            -8.82290
            -8.81640
            -8.80990
            -8.80339
            -8.79689
            -8.79039
            -8.78388
            -8.77738
            -8.77088
            -8.76437
            -8.75787
            -8.75137
            -8.74486
            -8.73836
            -8.73186
            -8.72535
            -8.71885
            -8.71235
            -8.70584
            -8.69934
            -8.69284
            -8.68633
            -8.67983
            -8.67333
            -8.66682
            -8.66032
            -8.65382
            -8.64731
            -8.64081
            -8.63431
            -8.62780
            -8.62130
            -8.61480
            -8.60829
            -8.60179
            -8.59529
            -8.58879
            -8.58228
            -8.57578
            -8.56928
            -8.56277
            -8.55627
            -8.54977
            -8.54326
            -8.53676
            -8.53026
            -8.52375
            -8.51725
            -8.51075
            -8.50424
            -8.49774
            -8.49124
            -8.48473
            -8.47823
            -8.47173
            -8.46522
            -8.45872
            -8.45222
            -8.44571
            -8.43921
            -8.43271
            -8.42620
            -8.41970
            -8.41320
            -8.40669
            -8.40019
            -8.39369
            -8.38718
            -8.38068
            -8.37418
            -8.36767
            -8.36117
            -8.35467
            -8.34817
            -8.34166
            -8.33516
            -8.32866
            -8.32215
            -8.31565
            -8.30915
            -8.30264
            -8.29614
            -8.28964
            -8.28313
            -8.27663
            -8.27013
            -8.26362
            -8.25712
            -8.25062
            -8.24411
            -8.23761
            -8.23111
            -8.22460
            -8.21810
            -8.21160
            -8.20509
            -8.19859
            -8.19209
            -8.18558
            -8.17908
            -8.17258
            -8.16607
            -8.15957
            -8.15307
            -8.14656
            -8.14006
            -8.13356
            -8.12705
            -8.12055
            -8.11405
            -8.10755
            -8.10104
            -8.09454
            -8.08804
            -8.08153
            -8.07503
            -8.06853
            -8.06202
            -8.05552
            -8.04902
            -8.04251
            -8.03601
            -8.02951
            -8.02300
            -8.01650
            -8.01000
            -8.00349
            -7.99699
            -7.99049
            -7.98398
            -7.97748
            -7.97098
            -7.96447
            -7.95797
            -7.95147
            -7.94496
            -7.93846
            -7.93196
            -7.92545
            -7.91895
            -7.91245
            -7.90594
            -7.89944
            -7.89294
            -7.88643
            -7.87993
            -7.87343
            -7.86693
            -7.86042
            -7.85392
            -7.84742
            -7.84091
            -7.83441
            -7.82791
            -7.82140
            -7.81490
            -7.80840
            -7.80189
            -7.79539
            -7.78889
            -7.78238
            -7.77588
            -7.76938
            -7.76287
            -7.75637
            -7.74987
            -7.74336
            -7.73686
            -7.73036
            -7.72385
            -7.71735
            -7.71085
            -7.70434
            -7.69784
            -7.69134
            -7.68483
            -7.67833
            -7.67183
            -7.66532
            -7.65882
            -7.65232
            -7.64581
            -7.63931
            -7.63281
            -7.62631
            -7.61980
            -7.61330
            -7.60680
            -7.60029
            -7.59379
            -7.58729
            -7.58078
            -7.57428
            -7.56778
            -7.56127
            -7.55477
            -7.54827
            -7.54176
            -7.53526
            -7.52876
            -7.52225
            -7.51575
            -7.50925
            -7.50274
            -7.49624
            -7.48974
            -7.48323
            -7.47673
            -7.47023
            -7.46372
            -7.45722
            -7.45072
            -7.44421
            -7.43771
            -7.43121
            -7.42470
            -7.41820
            -7.41170
            -7.40519
            -7.39869
            -7.39219
            -7.38568
            -7.37918
            -7.37268
            -7.36618
            -7.35967
            -7.35317
            -7.34667
            -7.34016
            -7.33366
            -7.32716
            -7.32065
            -7.31415
            -7.30765
            -7.30114
            -7.29464
            -7.28814
            -7.28163
            -7.27513
            -7.26863
            -7.26212
            -7.25562
            -7.24912
            -7.24261
            -7.23611
            -7.22961
            -7.22310
            -7.21660
            -7.21010
            -7.20359
            -7.19709
            -7.19059
            -7.18408
            -7.17758
            -7.17108
            -7.16457
            -7.15807
            -7.15157
            -7.14506
            -7.13856
            -7.13206
            -7.12556
            -7.11905
            -7.11255
            -7.10605
            -7.09954
            -7.09304
            -7.08654
            -7.08003
            -7.07353
            -7.06703
            -7.06052
            -7.05402
            -7.04752
            -7.04101
            -7.03451
            -7.02801
            -7.02150
            -7.01500
            -7.00850
            -7.00199
            -6.99549
            -6.98899
            -6.98248
            -6.97598
            -6.96948
            -6.96297
            -6.95647
            -6.94997
            -6.94346
            -6.93696
            -6.93046
            -6.92395
            -6.91745
            -6.91095
            -6.90444
            -6.89794
            -6.89144
            -6.88494
            -6.87843
            -6.87193
            -6.86543
            -6.85892
            -6.85242
            -6.84592
            -6.83941
            -6.83291
            -6.82641
            -6.81990
            -6.81340
            -6.80690
            -6.80039
            -6.79389
            -6.78739
            -6.78088
            -6.77438
            -6.76788
            -6.76137
            -6.75487
            -6.74837
            -6.74186
            -6.73536
            -6.72886
            -6.72235
            -6.71585
            -6.70935
            -6.70284
            -6.69634
            -6.68984
            -6.68333
            -6.67683
            -6.67033
            -6.66382
            -6.65732
            -6.65082
            -6.64432
            -6.63781
            -6.63131
            -6.62481
            -6.61830
            -6.61180
            -6.60530
            -6.59879
            -6.59229
            -6.58579
            -6.57928
            -6.57278
            -6.56628
            -6.55977
            -6.55327
            -6.54677
            -6.54026
            -6.53376
            -6.52726
            -6.52075
            -6.51425
            -6.50775
            -6.50124
            -6.49474
            -6.48824
            -6.48173
            -6.47523
            -6.46873
            -6.46222
            -6.45572
            -6.44922
            -6.44271
            -6.43621
            -6.42971
            -6.42320
            -6.41670
            -6.41020
            -6.40370
            -6.39719
            -6.39069
            -6.38419
            -6.37768
            -6.37118
            -6.36468
            -6.35817
            -6.35167
            -6.34517
            -6.33866
            -6.33216
            -6.32566
            -6.31915
            -6.31265
            -6.30615
            -6.29964
            -6.29314
            -6.28664
            -6.28013
            -6.27363
            -6.26713
            -6.26062
            -6.25412
            -6.24762
            -6.24111
            -6.23461
            -6.22811
            -6.22160
            -6.21510
            -6.20860
            -6.20209
            -6.19559
            -6.18909
            -6.18258
            -6.17608
            -6.16958
            -6.16307
            -6.15657
            -6.15007
            -6.14357
            -6.13706
            -6.13056
            -6.12406
            -6.11755
            -6.11105
            -6.10455
            -6.09804
            -6.09154
            -6.08504
            -6.07853
            -6.07203
            -6.06553
            -6.05902
            -6.05252
            -6.04602
            -6.03951
            -6.03301
            -6.02651
            -6.02000
            -6.01350
            -6.00700
            -6.00049
            -5.99399
            -5.98749
            -5.98098
            -5.97448
            -5.96798
            -5.96147
            -5.95497
            -5.94847
            -5.94196
            -5.93546
            -5.92896
            -5.92245
            -5.91595
            -5.90945
            -5.90295
            -5.89644
            -5.88994
            -5.88344
            -5.87693
            -5.87043
            -5.86393
            -5.85742
            -5.85092
            -5.84442
            -5.83791
            -5.83141
            -5.82491
            -5.81840
            -5.81190
            -5.80540
            -5.79889
            -5.79239
            -5.78589
            -5.77938
            -5.77288
            -5.76638
            -5.75987
            -5.75337
            -5.74687
            -5.74036
            -5.73386
            -5.72736
            -5.72085
            -5.71435
            -5.70785
            -5.70134
            -5.69484
            -5.68834
            -5.68183
            -5.67533
            -5.66883
            -5.66233
            -5.65582
            -5.64932
            -5.64282
            -5.63631
            -5.62981
            -5.62331
            -5.61680
            -5.61030
            -5.60380
            -5.59729
            -5.59079
            -5.58429
            -5.57778
            -5.57128
            -5.56478
            -5.55827
            -5.55177
            -5.54527
            -5.53876
            -5.53226
            -5.52576
            -5.51925
            -5.51275
            -5.50625
            -5.49974
            -5.49324
            -5.48674
            -5.48023
            -5.47373
            -5.46723
            -5.46072
            -5.45422
            -5.44772
            -5.44121
            -5.43471
            -5.42821
            -5.42171
            -5.41520
            -5.40870
            -5.40220
            -5.39569
            -5.38919
            -5.38269
            -5.37618
            -5.36968
            -5.36318
            -5.35667
            -5.35017
            -5.34367
            -5.33716
            -5.33066
            -5.32416
            -5.31765
            -5.31115
            -5.30465
            -5.29814
            -5.29164
            -5.28514
            -5.27863
            -5.27213
            -5.26563
            -5.25912
            -5.25262
            -5.24612
            -5.23961
            -5.23311
            -5.22661
            -5.22010
            -5.21360
            -5.20710
            -5.20059
            -5.19409
            -5.18759
            -5.18109
            -5.17458
            -5.16808
            -5.16158
            -5.15507
            -5.14857
            -5.14207
            -5.13556
            -5.12906
            -5.12256
            -5.11605
            -5.10955
            -5.10305
            -5.09654
            -5.09004
            -5.08354
            -5.07703
            -5.07053
            -5.06403
            -5.05752
            -5.05102
            -5.04452
            -5.03801
            -5.03151
            -5.02501
            -5.01850
            -5.01200
            -5.00550
            -4.99899
            -4.99249
            -4.98599
            -4.97948
            -4.97298
            -4.96648
            -4.95997
            -4.95347
            -4.94697
            -4.94046
            -4.93396
            -4.92746
            -4.92096
            -4.91445
            -4.90795
            -4.90145
            -4.89494
            -4.88844
            -4.88194
            -4.87543
            -4.86893
            -4.86243
            -4.85592
            -4.84942
            -4.84292
            -4.83641
            -4.82991
            -4.82341
            -4.81690
            -4.81040
            -4.80390
            -4.79739
            -4.79089
            -4.78439
            -4.77788
            -4.77138
            -4.76488
            -4.75837
            -4.75187
            -4.74537
            -4.73886
            -4.73236
            -4.72586
            -4.71935
            -4.71285
            -4.70635
            -4.69984
            -4.69334
            -4.68684
            -4.68034
            -4.67383
            -4.66733
            -4.66083
            -4.65432
            -4.64782
            -4.64132
            -4.63481
            -4.62831
            -4.62181
            -4.61530
            -4.60880
            -4.60230
            -4.59579
            -4.58929
            -4.58279
            -4.57628
            -4.56978
            -4.56328
            -4.55677
            -4.55027
            -4.54377
            -4.53726
            -4.53076
            -4.52426
            -4.51775
            -4.51125
            -4.50475
            -4.49824
            -4.49174
            -4.48524
            -4.47873
            -4.47223
            -4.46573
            -4.45922
            -4.45272
            -4.44622
            -4.43972
            -4.43321
            -4.42671
            -4.42021
            -4.41370
            -4.40720
            -4.40070
            -4.39419
            -4.38769
            -4.38119
            -4.37468
            -4.36818
            -4.36168
            -4.35517
            -4.34867
            -4.34217
            -4.33566
            -4.32916
            -4.32266
            -4.31615
            -4.30965
            -4.30315
            -4.29664
            -4.29014
            -4.28364
            -4.27713
            -4.27063
            -4.26413
            -4.25762
            -4.25112
            -4.24462
            -4.23811
            -4.23161
            -4.22511
            -4.21860
            -4.21210
            -4.20560
            -4.19910
            -4.19259
            -4.18609
            -4.17959
            -4.17308
            -4.16658
            -4.16008
            -4.15357
            -4.14707
            -4.14057
            -4.13406
            -4.12756
            -4.12106
            -4.11455
            -4.10805
            -4.10155
            -4.09504
            -4.08854
            -4.08204
            -4.07553
            -4.06903
            -4.06253
            -4.05602
            -4.04952
            -4.04302
            -4.03651
            -4.03001
            -4.02351
            -4.01700
            -4.01050
            -4.00400
            -3.99749
            -3.99099
            -3.98449
            -3.97798
            -3.97148
            -3.96498
            -3.95848
            -3.95197
            -3.94547
            -3.93897
            -3.93246
            -3.92596
            -3.91946
            -3.91295
            -3.90645
            -3.89995
            -3.89344
            -3.88694
            -3.88044
            -3.87393
            -3.86743
            -3.86093
            -3.85442
            -3.84792
            -3.84142
            -3.83491
            -3.82841
            -3.82191
            -3.81540
            -3.80890
            -3.80240
            -3.79589
            -3.78939
            -3.78289
            -3.77638
            -3.76988
            -3.76338
            -3.75687
            -3.75037
            -3.74387
            -3.73736
            -3.73086
            -3.72436
            -3.71785
            -3.71135
            -3.70485
            -3.69835
            -3.69184
            -3.68534
            -3.67884
            -3.67233
            -3.66583
            -3.65933
            -3.65282
            -3.64632
            -3.63982
            -3.63331
            -3.62681
            -3.62031
            -3.61380
            -3.60730
            -3.60080
            -3.59429
            -3.58779
            -3.58129
            -3.57478
            -3.56828
            -3.56178
            -3.55527
            -3.54877
            -3.54227
            -3.53576
            -3.52926
            -3.52276
            -3.51625
            -3.50975
            -3.50325
            -3.49674
            -3.49024
            -3.48374
            -3.47723
            -3.47073
            -3.46423
            -3.45773
            -3.45122
            -3.44472
            -3.43822
            -3.43171
            -3.42521
            -3.41871
            -3.41220
            -3.40570
            -3.39920
            -3.39269
            -3.38619
            -3.37969
            -3.37318
            -3.36668
            -3.36018
            -3.35367
            -3.34717
            -3.34067
            -3.33416
            -3.32766
            -3.32116
            -3.31465
            -3.30815
            -3.30165
            -3.29514
            -3.28864
            -3.28214
            -3.27563
            -3.26913
            -3.26263
            -3.25612
            -3.24962
            -3.24312
            -3.23661
            -3.23011
            -3.22361
            -3.21711
            -3.21060
            -3.20410
            -3.19760
            -3.19109
            -3.18459
            -3.17809
            -3.17158
            -3.16508
            -3.15858
            -3.15207
            -3.14557
            -3.13907
            -3.13256
            -3.12606
            -3.11956
            -3.11305
            -3.10655
            -3.10005
            -3.09354
            -3.08704
            -3.08054
            -3.07403
            -3.06753
            -3.06103
            -3.05452
            -3.04802
            -3.04152
            -3.03501
            -3.02851
            -3.02201
            -3.01550
            -3.00900
            -3.00250
            -2.99599
            -2.98949
            -2.98299
            -2.97649
            -2.96998
            -2.96348
            -2.95698
            -2.95047
            -2.94397
            -2.93747
            -2.93096
            -2.92446
            -2.91796
            -2.91145
            -2.90495
            -2.89845
            -2.89194
            -2.88544
            -2.87894
            -2.87243
            -2.86593
            -2.85943
            -2.85292
            -2.84642
            -2.83992
            -2.83341
            -2.82691
            -2.82041
            -2.81390
            -2.80740
            -2.80090
            -2.79439
            -2.78789
            -2.78139
            -2.77488
            -2.76838
            -2.76188
            -2.75537
            -2.74887
            -2.74237
            -2.73587
            -2.72936
            -2.72286
            -2.71636
            -2.70985
            -2.70335
            -2.69685
            -2.69034
            -2.68384
            -2.67734
            -2.67083
            -2.66433
            -2.65783
            -2.65132
            -2.64482
            -2.63832
            -2.63181
            -2.62531
            -2.61881
            -2.61230
            -2.60580
            -2.59930
            -2.59279
            -2.58629
            -2.57979
            -2.57328
            -2.56678
            -2.56028
            -2.55377
            -2.54727
            -2.54077
            -2.53426
            -2.52776
            -2.52126
            -2.51475
            -2.50825
            -2.50175
            -2.49524
            -2.48874
            -2.48224
            -2.47574
            -2.46923
            -2.46273
            -2.45623
            -2.44972
            -2.44322
            -2.43672
            -2.43021
            -2.42371
            -2.41721
            -2.41070
            -2.40420
            -2.39770
            -2.39119
            -2.38469
            -2.37819
            -2.37168
            -2.36518
            -2.35868
            -2.35217
            -2.34567
            -2.33917
            -2.33266
            -2.32616
            -2.31966
            -2.31315
            -2.30665
            -2.30015
            -2.29364
            -2.28714
            -2.28064
            -2.27413
            -2.26763
            -2.26113
            -2.25462
            -2.24812
            -2.24162
            -2.23512
            -2.22861
            -2.22211
            -2.21561
            -2.20910
            -2.20260
            -2.19610
            -2.18959
            -2.18309
            -2.17659
            -2.17008
            -2.16358
            -2.15708
            -2.15057
            -2.14407
            -2.13757
            -2.13106
            -2.12456
            -2.11806
            -2.11155
            -2.10505
            -2.09855
            -2.09204
            -2.08554
            -2.07904
            -2.07253
            -2.06603
            -2.05953
            -2.05302
            -2.04652
            -2.04002
            -2.03351
            -2.02701
            -2.02051
            -2.01400
            -2.00750
            -2.00100
            -1.99450
            -1.98799
            -1.98149
            -1.97499
            -1.96848
            -1.96198
            -1.95548
            -1.94897
            -1.94247
            -1.93597
            -1.92946
            -1.92296
            -1.91646
            -1.90995
            -1.90345
            -1.89695
            -1.89044
            -1.88394
            -1.87744
            -1.87093
            -1.86443
            -1.85793
            -1.85142
            -1.84492
            -1.83842
            -1.83191
            -1.82541
            -1.81891
            -1.81240
            -1.80590
            -1.79940
            -1.79289
            -1.78639
            -1.77989
            -1.77338
            -1.76688
            -1.76038
            -1.75388
            -1.74737
            -1.74087
            -1.73437
            -1.72786
            -1.72136
            -1.71486
            -1.70835
            -1.70185
            -1.69535
            -1.68884
            -1.68234
            -1.67584
            -1.66933
            -1.66283
            -1.65633
            -1.64982
            -1.64332
            -1.63682
            -1.63031
            -1.62381
            -1.61731
            -1.61080
            -1.60430
            -1.59780
            -1.59129
            -1.58479
            -1.57829
            -1.57178
            -1.56528
            -1.55878
            -1.55227
            -1.54577
            -1.53927
            -1.53276
            -1.52626
            -1.51976
            -1.51326
            -1.50675
            -1.50025
            -1.49375
            -1.48724
            -1.48074
            -1.47424
            -1.46773
            -1.46123
            -1.45473
            -1.44822
            -1.44172
            -1.43522
            -1.42871
            -1.42221
            -1.41571
            -1.40920
            -1.40270
            -1.39620
            -1.38969
            -1.38319
            -1.37669
            -1.37018
            -1.36368
            -1.35718
            -1.35067
            -1.34417
            -1.33767
            -1.33116
            -1.32466
            -1.31816
            -1.31165
            -1.30515
            -1.29865
            -1.29214
            -1.28564
            -1.27914
            -1.27263
            -1.26613
            -1.25963
            -1.25313
            -1.24662
            -1.24012
            -1.23362
            -1.22711
            -1.22061
            -1.21411
            -1.20760
            -1.20110
            -1.19460
            -1.18809
            -1.18159
            -1.17509
            -1.16858
            -1.16208
            -1.15558
            -1.14907
            -1.14257
            -1.13607
            -1.12956
            -1.12306
            -1.11656
            -1.11005
            -1.10355
            -1.09705
            -1.09054
            -1.08404
            -1.07754
            -1.07103
            -1.06453
            -1.05803
            -1.05152
            -1.04502
            -1.03852
            -1.03201
            -1.02551
            -1.01901
            -1.01251
            -1.00600
            -0.99950
            -0.99300
            -0.98649
            -0.97999
            -0.97349
            -0.96698
            -0.96048
            -0.95398
            -0.94747
            -0.94097
            -0.93447
            -0.92796
            -0.92146
            -0.91496
            -0.90845
            -0.90195
            -0.89545
            -0.88894
            -0.88244
            -0.87594
            -0.86943
            -0.86293
            -0.85643
            -0.84992
            -0.84342
            -0.83692
            -0.83041
            -0.82391
            -0.81741
            -0.81090
            -0.80440
            -0.79790
            -0.79139
            -0.78489
            -0.77839
            -0.77189
            -0.76538
            -0.75888
            -0.75238
            -0.74587